/*--------------------------------*- C++ -*----------------------------------*\
| =========                 |                                                 |
| \\      /  F ield         | OpenFOAM: The Open Source CFD Toolbox           |
|  \\    /   O peration     | Version:  4.x                                   |
|   \\  /    A nd           | Web:      www.OpenFOAM.org                      |
|    \\/     M anipulation  |                                                 |
\*---------------------------------------------------------------------------*/
FoamFile
{
    version     2.0;
    format      ascii;
    class       volScalarField;
    location    "0";
    object      ccz;
}
// * * * * * * * * * * * * * * * * * * * * * * * * * * * * * * * * * * * * * //

dimensions      [0 1 0 0 0 0 0];

internalField   nonuniform List<scalar> 
21500
(
0
-2.82344e-23
-2.82344e-23
0
-2.82344e-23
0
-2.82344e-23
0
-2.82344e-23
-2.82344e-23
-2.82344e-23
0
-2.82344e-23
0
-2.82344e-23
0
-2.82344e-23
0
0
-2.82344e-23
0
-2.82344e-23
0
-2.82344e-23
0
0
-2.82344e-23
0
0
0
-2.82344e-23
0
0
9.5766e-22
0
0
0
0
0
0
0
0
0
0
0
1.91532e-21
0
0
-1.88709e-21
-1.88709e-21
0
-2.62269e-23
-2.62269e-23
-2.62269e-23
-2.62269e-23
-2.62269e-23
-2.62269e-23
-2.62269e-23
-2.62269e-23
-2.62269e-23
-2.62269e-23
-2.62269e-23
-2.62269e-23
-2.62269e-23
-2.62269e-23
-2.62269e-23
-2.62269e-23
-2.62269e-23
-2.62269e-23
-2.62269e-23
-2.62269e-23
-2.62269e-23
-2.62269e-23
-2.62269e-23
-2.62269e-23
-2.62269e-23
-2.62269e-23
-2.62269e-23
-2.62269e-23
-2.62269e-23
-2.62269e-23
-2.62269e-23
-2.62269e-23
-1.1999e-21
-2.62269e-23
-2.62269e-23
-2.62269e-23
-2.62269e-23
-2.62269e-23
-2.62269e-23
-2.62269e-23
4.13593e-21
-2.62269e-23
-2.62269e-23
-2.62269e-23
6.80385e-21
-2.62269e-23
-1.1999e-21
-2.85443e-21
-2.85443e-21
3.47119e-21
4.02696e-21
4.02696e-21
5.55767e-22
4.02696e-21
5.55767e-22
4.02696e-21
5.55767e-22
4.02696e-21
4.02696e-21
4.02696e-21
5.55767e-22
4.02696e-21
5.55767e-22
4.02696e-21
5.55767e-22
4.02696e-21
-4.65102e-21
5.55767e-22
4.02696e-21
5.55767e-22
4.02696e-21
5.55767e-22
4.02696e-21
-2.91542e-21
4.02696e-21
5.55767e-22
4.02696e-21
-2.91542e-21
4.02696e-21
5.55767e-22
4.02696e-21
5.55767e-22
-8.29444e-21
5.55767e-22
5.55767e-22
5.55767e-22
5.55767e-22
5.55767e-22
5.55767e-22
5.55767e-22
7.27991e-22
5.55767e-22
5.55767e-22
5.55767e-22
-4.82324e-21
5.55767e-22
5.55767e-22
5.76255e-21
5.55767e-22
8.23754e-21
7.58067e-21
7.58067e-21
1.94057e-20
7.58067e-21
1.94057e-20
7.58067e-21
1.94057e-20
7.58067e-21
7.58067e-21
7.58067e-21
1.94057e-20
7.58067e-21
1.94057e-20
7.58067e-21
1.94057e-20
7.58067e-21
-8.45105e-22
1.94057e-20
7.58067e-21
1.94057e-20
7.58067e-21
1.94057e-20
7.58067e-21
7.58067e-21
1.90513e-20
-1.50062e-20
1.90513e-20
7.58067e-21
1.90513e-20
-1.50062e-20
1.90513e-20
-8.45105e-22
-8.45105e-22
-8.45105e-22
-8.45105e-22
-8.45105e-22
-8.45105e-22
-8.45105e-22
-8.45105e-22
-8.45105e-22
-8.45105e-22
-8.45105e-22
-8.45105e-22
-8.45105e-22
-8.45105e-22
-8.45105e-22
-8.45105e-22
-8.45105e-22
-8.45105e-22
1.71639e-22
4.30303e-22
4.30303e-22
-1.39148e-20
4.30303e-22
-1.39148e-20
4.30303e-22
-1.39148e-20
4.30303e-22
4.30303e-22
4.30303e-22
-1.39148e-20
4.30303e-22
-1.39148e-20
4.30303e-22
-1.39148e-20
4.30303e-22
7.04344e-23
-1.39148e-20
4.30303e-22
-1.39148e-20
4.30303e-22
-1.39148e-20
4.30303e-22
-1.91764e-20
-4.1115e-21
-4.83124e-21
-4.1115e-21
-1.91764e-20
-4.1115e-21
-4.83124e-21
-4.1115e-21
-9.37304e-21
7.04344e-23
-9.37304e-21
-9.37304e-21
-9.37304e-21
-9.37304e-21
-9.37304e-21
-9.37304e-21
-9.37304e-21
-9.73291e-21
-9.37304e-21
-9.37304e-21
-9.37304e-21
-1.46346e-20
-9.37304e-21
7.04344e-23
7.04344e-23
9.15404e-21
-1.24471e-20
-4.61479e-21
-4.61479e-21
-5.82475e-22
-4.61479e-21
-5.82475e-22
-4.61479e-21
-5.82475e-22
-4.61479e-21
-4.61479e-21
-4.61479e-21
-5.82475e-22
-4.61479e-21
-5.82475e-22
-4.61479e-21
-5.82475e-22
-4.61479e-21
1.44144e-22
-5.82475e-22
-4.61479e-21
-5.82475e-22
-4.61479e-21
-5.82475e-22
-4.61479e-21
-5.82475e-22
-4.61479e-21
-4.61479e-21
-4.61479e-21
-5.82475e-22
-4.61479e-21
-4.61479e-21
-4.61479e-21
-4.61479e-21
1.44144e-22
-4.61479e-21
-4.61479e-21
-4.61479e-21
-4.61479e-21
-4.61479e-21
-4.61479e-21
-4.61479e-21
-8.6471e-21
-4.61479e-21
-4.61479e-21
-4.61479e-21
8.20877e-21
-4.61479e-21
1.44144e-22
1.22411e-20
1.44144e-22
-7.75837e-21
0
0
-8.13483e-21
-8.13483e-21
0
0
0
-8.13483e-21
0
0
-8.13483e-21
-8.13483e-21
0
0
0
-8.13483e-21
-7.40348e-21
0
0
0
-8.13483e-21
0
0
-8.13483e-21
0
-8.13483e-21
8.13483e-21
-8.13483e-21
0
-8.13483e-21
8.13483e-21
0
-1.4807e-20
0
0
0
0
0
0
0
-1.55383e-20
0
0
0
0
0
7.40348e-21
-2.29418e-20
-1.4807e-20
1.42781e-20
2.82722e-20
2.82722e-20
2.05776e-20
2.05776e-20
2.82722e-20
2.82722e-20
2.82722e-20
2.05776e-20
2.82722e-20
2.82722e-20
2.05776e-20
2.05776e-20
2.82722e-20
2.82722e-20
2.82722e-20
2.05776e-20
-1.0369e-21
2.82722e-20
2.82722e-20
2.82722e-20
2.05776e-20
2.82722e-20
2.82722e-20
2.05776e-20
5.92299e-21
2.05776e-20
1.36177e-20
2.05776e-20
5.92299e-21
2.05776e-20
1.36177e-20
5.92299e-21
-7.99679e-21
5.92299e-21
5.92299e-21
5.92299e-21
5.92299e-21
5.92299e-21
5.92299e-21
5.92299e-21
-7.99679e-21
5.92299e-21
5.92299e-21
5.92299e-21
-1.56915e-20
5.92299e-21
1.36177e-20
-8.73158e-21
-7.99679e-21
1.36806e-20
1.40571e-20
1.40571e-20
-7.37413e-22
1.40571e-20
-7.37413e-22
1.40571e-20
-7.37413e-22
1.40571e-20
1.40571e-20
1.40571e-20
-7.37413e-22
1.40571e-20
-7.37413e-22
1.40571e-20
-7.37413e-22
1.40571e-20
6.65983e-21
-7.37413e-22
1.40571e-20
-7.37413e-22
1.40571e-20
-7.37413e-22
1.40571e-20
-7.37413e-22
0
1.40571e-20
0
-7.37413e-22
0
1.40571e-20
0
0
1.33197e-20
0
0
0
0
0
0
0
-6.65983e-21
0
0
0
0
0
-6.65983e-21
6.65983e-21
1.40571e-20
-3.33923e-20
-3.43713e-20
-3.43713e-20
-3.36319e-20
-3.43713e-20
-3.36319e-20
-3.43713e-20
-3.36319e-20
-3.43713e-20
-3.43713e-20
-3.43713e-20
-3.36319e-20
-3.43713e-20
-3.36319e-20
-3.43713e-20
-3.36319e-20
-3.43713e-20
1.50315e-22
-3.36319e-20
-3.43713e-20
-3.36319e-20
-3.43713e-20
-3.36319e-20
-3.43713e-20
-3.36319e-20
-2.71712e-20
-3.43713e-20
-2.71712e-20
-3.36319e-20
-2.71712e-20
-3.43713e-20
-2.71712e-20
-2.71712e-20
1.50315e-22
-2.71712e-20
-2.71712e-20
-2.71712e-20
-2.71712e-20
-2.71712e-20
-2.71712e-20
-2.71712e-20
-6.31033e-21
-2.71712e-20
-2.71712e-20
-2.71712e-20
-7.0498e-21
-2.71712e-20
1.50315e-22
2.67324e-20
-7.0498e-21
1.93731e-20
2.82451e-20
2.82451e-20
1.55728e-20
2.19089e-20
2.19089e-20
2.82451e-20
2.19089e-20
2.19089e-20
2.82451e-20
2.82451e-20
1.55728e-20
2.19089e-20
2.19089e-20
2.82451e-20
2.19089e-20
2.19089e-20
4.87358e-20
2.19089e-20
2.82451e-20
2.19089e-20
2.19089e-20
2.19089e-20
2.82451e-20
2.19089e-20
9.23662e-21
2.82451e-20
2.19089e-20
2.19089e-20
9.23662e-21
2.82451e-20
2.19089e-20
2.19089e-20
8.4955e-21
2.19089e-20
2.19089e-20
2.19089e-20
2.19089e-20
2.19089e-20
2.19089e-20
2.19089e-20
-1.68491e-20
2.19089e-20
2.19089e-20
2.19089e-20
3.53223e-20
2.19089e-20
2.15935e-21
-5.65904e-21
8.4955e-21
0
6.26943e-21
6.26943e-21
0
0
6.26943e-21
6.26943e-21
6.26943e-21
0
6.26943e-21
6.26943e-21
0
0
6.26943e-21
6.26943e-21
6.26943e-21
0
6.26943e-21
6.26943e-21
6.26943e-21
6.26943e-21
0
6.26943e-21
6.26943e-21
0
0
0
6.26943e-21
0
0
0
6.26943e-21
0
7.0119e-21
0
0
0
0
0
0
0
0
0
0
0
-1.25389e-20
0
6.26943e-21
-1.95508e-20
1.32813e-20
-1.24983e-20
-2.51489e-20
-2.51489e-20
-2.51489e-20
-2.51489e-20
-2.51489e-20
-2.51489e-20
-2.51489e-20
-2.51489e-20
-2.51489e-20
-2.51489e-20
-2.51489e-20
-2.51489e-20
-2.51489e-20
-2.51489e-20
-2.51489e-20
-2.51489e-20
-1.52319e-22
-2.51489e-20
-2.51489e-20
-2.51489e-20
-2.51489e-20
-2.51489e-20
-2.51489e-20
-2.51489e-20
-2.51489e-20
-2.51489e-20
-2.51489e-20
-2.51489e-20
-2.51489e-20
-2.51489e-20
-2.51489e-20
-2.51489e-20
-2.58925e-20
-2.51489e-20
-2.51489e-20
-2.51489e-20
-2.51489e-20
-2.51489e-20
-2.51489e-20
-2.51489e-20
2.63315e-20
-2.51489e-20
-2.51489e-20
-2.51489e-20
-1.52319e-22
-2.51489e-20
-3.91345e-20
-1.52319e-22
1.30896e-20
2.65426e-20
2.60643e-20
2.60643e-20
2.45751e-20
2.60643e-20
2.45751e-20
2.60643e-20
2.45751e-20
2.60643e-20
2.60643e-20
2.60643e-20
2.45751e-20
2.60643e-20
2.45751e-20
2.60643e-20
2.45751e-20
2.60643e-20
1.05509e-20
2.45751e-20
2.60643e-20
2.45751e-20
2.60643e-20
2.45751e-20
2.60643e-20
2.45751e-20
2.45751e-20
2.60643e-20
2.45751e-20
2.45751e-20
2.45751e-20
2.60643e-20
2.45751e-20
2.45751e-20
-1.98416e-21
2.45751e-20
2.45751e-20
2.45751e-20
2.45751e-20
2.45751e-20
2.45751e-20
2.45751e-20
-1.98416e-21
2.45751e-20
2.45751e-20
2.45751e-20
2.45751e-20
2.45751e-20
-4.95038e-22
1.05509e-20
-1.98416e-21
-3.93904e-20
-4.33574e-20
-4.33574e-20
-4.33574e-20
-4.33574e-20
-4.33574e-20
-4.33574e-20
-4.33574e-20
-4.33574e-20
-4.33574e-20
-4.33574e-20
-4.33574e-20
-4.33574e-20
-4.33574e-20
-4.33574e-20
-4.33574e-20
-4.33574e-20
-2.92284e-20
-4.33574e-20
-4.33574e-20
-4.33574e-20
-4.33574e-20
-4.33574e-20
-4.33574e-20
-4.33574e-20
-4.33574e-20
-4.33574e-20
-4.33574e-20
-4.33574e-20
-4.33574e-20
-4.33574e-20
-4.33574e-20
-4.33574e-20
-3.9519e-21
-4.33574e-20
-4.33574e-20
-4.33574e-20
-4.33574e-20
-4.33574e-20
-4.33574e-20
-4.33574e-20
-2.46113e-21
-4.33574e-20
-4.33574e-20
-4.33574e-20
1.16679e-20
-4.33574e-20
-2.46113e-21
-2.46113e-21
-2.46113e-21
-1.35393e-20
1.49826e-20
1.49826e-20
2.18256e-21
-1.21097e-20
2.92748e-20
1.49826e-20
2.92748e-20
-1.21097e-20
1.49826e-20
1.49826e-20
2.18256e-21
-1.21097e-20
2.92748e-20
1.49826e-20
2.92748e-20
-1.21097e-20
2.18256e-21
2.92748e-20
1.49826e-20
2.92748e-20
-1.21097e-20
2.92748e-20
1.49826e-20
2.18256e-21
2.18256e-21
-1.21097e-20
2.92748e-20
2.18256e-21
2.18256e-21
-1.21097e-20
2.92748e-20
2.18256e-21
3.0767e-20
2.18256e-21
2.18256e-21
2.18256e-21
2.18256e-21
2.18256e-21
2.18256e-21
2.18256e-21
2.18256e-21
2.18256e-21
2.18256e-21
2.18256e-21
2.18256e-21
2.18256e-21
2.18256e-21
-2.49097e-20
2.18256e-21
-7.40492e-22
-1.80106e-21
-1.80106e-21
-1.80106e-21
-1.80106e-21
-1.80106e-21
-1.80106e-21
-1.80106e-21
-1.80106e-21
-1.80106e-21
-1.80106e-21
-1.80106e-21
-1.80106e-21
-1.80106e-21
-1.80106e-21
-1.80106e-21
-1.80106e-21
-1.33226e-20
-1.80106e-21
-1.80106e-21
-1.80106e-21
-1.80106e-21
-1.80106e-21
-1.80106e-21
-3.0765e-22
-1.80106e-21
-3.0765e-22
-1.80106e-21
-3.0765e-22
-1.80106e-21
-3.0765e-22
-1.80106e-21
-3.0765e-22
-3.0765e-22
-3.0765e-22
-3.0765e-22
-3.0765e-22
-3.0765e-22
-3.0765e-22
-3.0765e-22
-3.0765e-22
-3.0765e-22
-3.0765e-22
-3.0765e-22
-3.0765e-22
-3.0765e-22
-3.0765e-22
-5.53541e-20
-5.53541e-20
-5.53541e-20
-1.40205e-20
-2.26457e-21
-2.26457e-21
1.10144e-20
-1.7038e-20
2.57878e-20
-2.26457e-21
2.57878e-20
-1.7038e-20
-2.26457e-21
-2.26457e-21
1.10144e-20
-1.7038e-20
2.57878e-20
-2.26457e-21
2.57878e-20
-1.7038e-20
-7.70073e-22
2.57878e-20
-2.26457e-21
2.57878e-20
-1.7038e-20
2.57878e-20
-2.26457e-21
1.25089e-20
1.10144e-20
-1.55435e-20
2.57878e-20
1.25089e-20
1.10144e-20
-1.55435e-20
2.57878e-20
1.25089e-20
-1.7038e-20
1.25089e-20
1.25089e-20
1.25089e-20
1.25089e-20
1.25089e-20
1.25089e-20
1.25089e-20
-2.26457e-21
1.25089e-20
1.25089e-20
1.25089e-20
3.90668e-20
1.25089e-20
-2.26457e-21
-3.18114e-20
3.90668e-20
2.71788e-20
3.08643e-22
3.08643e-22
3.08643e-22
2.74875e-20
-2.68702e-20
3.08643e-22
-2.68702e-20
2.74875e-20
3.08643e-22
3.08643e-22
3.08643e-22
2.74875e-20
-2.68702e-20
3.08643e-22
-2.68702e-20
2.74875e-20
-2.83657e-20
-2.68702e-20
3.08643e-22
-2.68702e-20
2.74875e-20
-2.68702e-20
3.08643e-22
3.08643e-22
1.24026e-20
2.74875e-20
-1.47762e-20
3.08643e-22
1.24026e-20
2.74875e-20
-1.47762e-20
1.24026e-20
3.08643e-22
1.24026e-20
1.24026e-20
1.24026e-20
1.24026e-20
1.24026e-20
1.24026e-20
1.24026e-20
-4.04596e-20
1.24026e-20
1.24026e-20
1.24026e-20
3.08643e-22
1.24026e-20
-1.32808e-20
1.80409e-21
1.38981e-20
2.86325e-20
2.93854e-20
2.93854e-20
-2.93854e-20
1.54408e-20
-1.54408e-20
2.93854e-20
-1.54408e-20
1.54408e-20
2.93854e-20
2.93854e-20
-2.93854e-20
1.54408e-20
-1.54408e-20
2.93854e-20
-1.54408e-20
1.54408e-20
-2.93854e-20
-1.54408e-20
2.93854e-20
-1.54408e-20
1.54408e-20
-1.54408e-20
2.93854e-20
1.39446e-20
-4.333e-20
5.87708e-20
-2.93854e-20
1.39446e-20
-4.333e-20
5.87708e-20
-2.93854e-20
0
0
0
0
0
0
0
0
0
-1.24483e-20
0
0
0
0
0
2.78891e-20
0
0
-1.43432e-20
1.80648e-21
1.80648e-21
-2.8377e-20
-1.40338e-20
-1.25368e-20
1.80648e-21
-1.25368e-20
-1.40338e-20
1.80648e-21
1.80648e-21
-2.8377e-20
-1.40338e-20
-1.25368e-20
1.80648e-21
-1.25368e-20
-1.40338e-20
-1.18763e-21
-1.25368e-20
1.80648e-21
-1.25368e-20
-1.40338e-20
-1.25368e-20
1.80648e-21
-1.25368e-20
-1.40338e-20
1.80648e-21
1.80648e-21
-1.25368e-20
-1.40338e-20
1.80648e-21
1.80648e-21
1.80648e-21
3.09427e-22
1.80648e-21
1.80648e-21
1.80648e-21
1.80648e-21
1.80648e-21
1.80648e-21
1.80648e-21
-1.40338e-20
1.80648e-21
1.80648e-21
1.80648e-21
3.09427e-22
1.80648e-21
4.48362e-20
-1.18763e-21
3.09427e-22
1.4785e-20
1.44752e-20
1.44752e-20
1.44752e-20
1.44752e-20
1.44752e-20
1.44752e-20
1.44752e-20
1.44752e-20
1.44752e-20
1.44752e-20
1.44752e-20
1.44752e-20
1.44752e-20
1.44752e-20
1.44752e-20
1.44752e-20
1.5973e-20
1.44752e-20
1.44752e-20
1.44752e-20
1.44752e-20
1.44752e-20
1.44752e-20
1.44752e-20
1.44752e-20
1.44752e-20
1.44752e-20
1.44752e-20
1.44752e-20
1.44752e-20
1.44752e-20
1.44752e-20
1.44752e-20
1.44752e-20
1.44752e-20
1.44752e-20
1.44752e-20
1.44752e-20
1.44752e-20
1.44752e-20
-3.09759e-22
1.44752e-20
1.44752e-20
1.44752e-20
-3.09759e-22
1.44752e-20
-1.65925e-20
7.66106e-20
7.66106e-20
-4.65546e-20
-4.76176e-20
-4.76176e-20
-8.11537e-20
-4.76176e-20
-6.5884e-20
-4.76176e-20
-6.5884e-20
-4.76176e-20
-4.76176e-20
-4.76176e-20
-8.11537e-20
-4.76176e-20
-6.5884e-20
-4.76176e-20
-6.5884e-20
-4.76176e-20
-1.70781e-20
-6.5884e-20
-4.76176e-20
-6.5884e-20
-4.76176e-20
-6.5884e-20
-4.76176e-20
-8.11537e-20
-3.10059e-22
-4.76176e-20
-3.10059e-22
-8.11537e-20
-3.10059e-22
-4.76176e-20
-3.10059e-22
-3.10059e-22
-7.96554e-20
-3.10059e-22
-3.10059e-22
-3.10059e-22
-3.10059e-22
-3.10059e-22
-3.10059e-22
-3.10059e-22
-6.43857e-20
-3.10059e-22
-3.10059e-22
-3.10059e-22
-6.28873e-20
-3.10059e-22
-4.76176e-20
-3.23479e-20
-1.70781e-20
-2.23797e-21
-1.75996e-20
-1.75996e-20
-1.46018e-20
-1.75996e-20
-1.46018e-20
-1.75996e-20
-1.46018e-20
-1.75996e-20
-1.75996e-20
-1.75996e-20
-1.46018e-20
-1.75996e-20
-1.46018e-20
-1.75996e-20
-1.46018e-20
-1.75996e-20
2.69492e-21
-1.46018e-20
-1.75996e-20
-1.46018e-20
-1.75996e-20
-1.46018e-20
-1.75996e-20
5.15874e-20
1.19602e-21
4.85895e-20
1.19602e-21
5.15874e-20
1.19602e-21
4.85895e-20
1.19602e-21
6.73852e-20
2.69492e-21
6.73852e-20
6.73852e-20
6.73852e-20
6.73852e-20
6.73852e-20
6.73852e-20
6.73852e-20
2.69492e-21
6.73852e-20
6.73852e-20
6.73852e-20
-1.46018e-20
6.73852e-20
2.69492e-21
2.69492e-21
2.69492e-21
-1.637e-20
-1.94732e-20
-1.94732e-20
-3.73427e-20
-1.94732e-20
-3.73427e-20
-1.94732e-20
-3.73427e-20
-1.94732e-20
-1.94732e-20
-1.94732e-20
-3.73427e-20
-1.94732e-20
-3.73427e-20
-1.94732e-20
-3.73427e-20
-1.94732e-20
-3.1032e-21
-3.73427e-20
-1.94732e-20
-3.73427e-20
-1.94732e-20
-3.73427e-20
-1.94732e-20
-3.73427e-20
-1.94732e-20
-1.94732e-20
-1.94732e-20
-3.73427e-20
-1.94732e-20
-1.94732e-20
-1.94732e-20
-1.94732e-20
-3.1032e-21
-1.94732e-20
-1.94732e-20
-1.94732e-20
-1.94732e-20
-1.94732e-20
-1.94732e-20
-1.94732e-20
-1.94732e-20
-1.94732e-20
-1.94732e-20
-1.94732e-20
-3.58432e-20
-1.94732e-20
-3.1032e-21
-1.60379e-21
1.32668e-20
-3.54684e-20
-1.87979e-20
-1.87979e-20
1.81763e-20
-3.72851e-20
3.66635e-20
-1.87979e-20
3.66635e-20
-3.72851e-20
-1.87979e-20
-1.87979e-20
1.81763e-20
-3.72851e-20
3.66635e-20
-1.87979e-20
3.66635e-20
-3.72851e-20
1.81763e-20
3.66635e-20
-1.87979e-20
3.66635e-20
-3.72851e-20
3.66635e-20
-1.87979e-20
1.81763e-20
-3.10799e-22
-3.72851e-20
1.81763e-20
1.81763e-20
-3.10799e-22
-3.72851e-20
1.81763e-20
-3.10799e-22
1.66765e-20
-3.10799e-22
-3.10799e-22
-3.10799e-22
-3.10799e-22
-3.10799e-22
-3.10799e-22
-3.10799e-22
1.51766e-20
-3.10799e-22
-3.10799e-22
-3.10799e-22
-3.10799e-22
-3.10799e-22
-3.42853e-20
-3.10799e-22
-1.72981e-20
-7.47371e-22
-1.50029e-21
-1.50029e-21
-1.50029e-21
-1.50029e-21
-1.50029e-21
-1.50029e-21
-1.50029e-21
-1.50029e-21
-1.50029e-21
-1.50029e-21
-1.50029e-21
-1.50029e-21
-1.50029e-21
-1.50029e-21
-1.50029e-21
-1.50029e-21
-1.50029e-21
-1.50029e-21
-1.50029e-21
-1.50029e-21
-1.50029e-21
-1.50029e-21
-1.50029e-21
-1.50029e-21
-1.50029e-21
-1.50029e-21
-1.50029e-21
-1.50029e-21
-1.50029e-21
-1.50029e-21
-1.50029e-21
-1.50029e-21
1.50029e-21
-1.50029e-21
-1.50029e-21
-1.50029e-21
-1.50029e-21
-1.50029e-21
-1.50029e-21
-1.50029e-21
3.83023e-20
-1.50029e-21
-1.50029e-21
-1.50029e-21
1.50029e-21
-1.50029e-21
1.50029e-21
-3.83023e-20
3.53017e-20
-3.74723e-20
-3.7914e-20
-3.7914e-20
-1.80511e-20
-3.7914e-20
-1.80511e-20
-3.7914e-20
-1.80511e-20
-3.7914e-20
-3.7914e-20
-3.7914e-20
-1.80511e-20
-3.7914e-20
-1.80511e-20
-3.7914e-20
-1.80511e-20
-3.7914e-20
3.11191e-22
-1.80511e-20
-3.7914e-20
-1.80511e-20
-3.7914e-20
-1.80511e-20
-3.7914e-20
-1.80511e-20
3.11191e-22
-3.7914e-20
3.11191e-22
-1.80511e-20
3.11191e-22
-3.7914e-20
3.11191e-22
3.11191e-22
-1.80511e-20
3.11191e-22
3.11191e-22
3.11191e-22
3.11191e-22
3.11191e-22
3.11191e-22
3.11191e-22
3.11191e-22
3.11191e-22
3.11191e-22
3.11191e-22
3.11191e-22
3.11191e-22
-3.7914e-20
2.01741e-20
3.11191e-22
-3.89946e-20
-2.09356e-20
-2.09356e-20
6.00605e-20
-4.00589e-20
7.91837e-20
-2.09356e-20
7.91837e-20
-4.00589e-20
-2.09356e-20
-2.09356e-20
6.00605e-20
-4.00589e-20
7.91837e-20
-2.09356e-20
7.91837e-20
-4.00589e-20
-3.85579e-20
7.91837e-20
-2.09356e-20
7.91837e-20
-4.00589e-20
7.91837e-20
-2.09356e-20
7.91837e-20
-1.94346e-20
-2.09356e-20
-3.11362e-22
7.91837e-20
-1.94346e-20
-2.09356e-20
-3.11362e-22
-3.11362e-22
-2.09356e-20
-3.11362e-22
-3.11362e-22
-3.11362e-22
-3.11362e-22
-3.11362e-22
-3.11362e-22
-3.11362e-22
3.94362e-20
-3.11362e-22
-3.11362e-22
-3.11362e-22
-3.11362e-22
-3.11362e-22
-2.09356e-20
3.79352e-20
-3.11362e-22
-2.14327e-20
-3.08985e-21
-3.08985e-21
-3.08985e-21
-2.60284e-20
3.97845e-20
-3.08985e-21
3.97845e-20
-2.60284e-20
-3.08985e-21
-3.08985e-21
-3.08985e-21
-2.60284e-20
3.97845e-20
-3.08985e-21
3.97845e-20
-2.60284e-20
-4.59642e-20
3.97845e-20
-3.08985e-21
3.97845e-20
-2.60284e-20
3.97845e-20
-3.08985e-21
3.97845e-20
-2.60284e-20
-3.08985e-21
-3.08985e-21
3.97845e-20
-2.60284e-20
-3.08985e-21
-3.08985e-21
-3.08985e-21
-6.59e-20
-3.08985e-21
-3.08985e-21
-3.08985e-21
-3.08985e-21
-3.08985e-21
-3.08985e-21
-3.08985e-21
-3.08985e-21
-3.08985e-21
-3.08985e-21
-3.08985e-21
-3.08985e-21
-3.08985e-21
-3.08985e-21
-4.44629e-20
-2.4527e-20
0
0
0
0
0
0
0
0
-5.94888e-22
0
0
0
0
0
5.65141e-22
0
-1.06596e-21
0
0
-4.9293e-22
0
0
0
0
9.33345e-22
-1.80778e-21
1.77762e-21
0
8.73534e-22
0
0
0
0
7.76063e-22
-7.91146e-22
0
0
0
1.45323e-21
-2.1295e-21
-2.0939e-21
0
0
-1.99065e-21
-1.34258e-21
0
-6.49678e-22
0
0
0
1.18899e-21
1.7681e-21
-2.29997e-21
-5.51369e-22
0
0
-1.07586e-21
0
-1.54686e-21
0
0
0
0
-9.29492e-22
-1.88395e-21
-1.82475e-21
1.82254e-21
0
0
8.67132e-22
1.6776e-21
0
0
0
0
0
0
7.3169e-22
0
-1.44244e-21
0
1.39491e-21
0
0
0
3.24739e-21
0
0
-1.21257e-21
-6.24246e-22
0
-2.33216e-21
-1.13244e-21
5.84861e-22
0
-5.37921e-22
0
0
0
0
1.48158e-21
1.48471e-21
0
0
0
0
0
0
0
0
-8.32545e-22
0
0
0
0
0
0
1.50557e-21
-2.17845e-21
3.62569e-21
-3.5652e-21
-7.18089e-22
7.06399e-22
0
0
0
0
-6.50852e-22
6.40301e-22
-6.01694e-22
-6.19732e-22
0
0
-5.90168e-22
-1.10482e-21
0
3.25955e-21
5.53035e-22
-1.03181e-21
0
0
0
0
-4.7365e-22
0
-9.43701e-22
-8.99953e-22
0
-8.6971e-22
8.83206e-22
0
0
0
0
0
-1.51505e-21
0
-1.49142e-21
7.33073e-22
7.48884e-22
0
6.96432e-22
0
7.01263e-22
0
0
6.39389e-22
-6.56788e-22
0
1.2431e-21
0
0
0
0
1.17182e-21
-1.70115e-21
0
0
-2.13977e-21
0
-5.03323e-22
-4.94794e-22
-1.48746e-21
-9.56333e-22
0
0
-2.78207e-21
0
0
8.91357e-22
2.82344e-23
0
0
0
0
8.07233e-22
3.11966e-21
-7.81054e-22
0
0
-2.62269e-23
1.89842e-21
-2.62269e-23
-7.6264e-21
-2.62269e-23
-1.82369e-21
5.43508e-21
-1.76329e-21
5.25694e-21
-2.62269e-23
-1.83675e-21
3.37861e-21
-2.62269e-23
-3.32203e-21
3.05615e-21
-3.21666e-21
3.11286e-21
-6.04315e-21
-2.62269e-23
-2.85614e-21
-2.62269e-23
-5.81642e-21
-2.71469e-21
1.34061e-22
2.73218e-21
-1.30327e-21
1.34061e-22
1.34061e-22
3.77371e-21
-2.62269e-23
-6.36932e-21
-1.1788e-21
-2.62269e-23
-2.62269e-23
4.51394e-21
-2.62269e-23
-9.87035e-21
-2.62269e-23
-6.32219e-21
8.33661e-21
1.95027e-21
-2.62269e-23
-2.62269e-23
-2.22451e-21
-2.62269e-23
-2.62269e-23
1.75763e-21
-3.69376e-21
-2.62269e-23
-1.72092e-21
-2.62269e-23
-2.62269e-23
-2.62269e-23
-1.76922e-21
-6.41005e-21
1.50329e-21
-2.62269e-23
-2.62269e-23
-1.63958e-21
2.99095e-21
2.94254e-21
-7.24902e-21
-2.62269e-23
-1.36028e-21
1.28522e-21
-2.76496e-21
-3.98864e-21
-2.51802e-21
2.42334e-21
-2.59457e-21
3.68493e-21
-2.62269e-23
1.11762e-21
-1.31098e-21
-2.62269e-23
-2.62269e-23
-2.62269e-23
-2.12654e-21
-2.09095e-21
-2.62269e-23
6.12008e-21
1.9353e-21
-2.62269e-23
-3.97773e-21
-2.62269e-23
-2.01842e-21
1.77464e-21
-1.86514e-22
1.34061e-22
1.84491e-21
5.17964e-21
-3.49323e-21
-6.68787e-21
-1.86514e-22
-2.62269e-23
-1.57033e-21
-6.41854e-21
-2.62269e-23
-2.62269e-23
-3.07065e-21
2.96932e-21
-2.62269e-23
4.08374e-21
-2.62269e-23
-2.62269e-23
-2.78954e-21
-8.02355e-21
1.23155e-21
-2.62269e-23
-5.04855e-21
-2.62269e-23
-2.62269e-23
3.59832e-21
-5.86244e-21
-2.41841e-21
-5.99228e-21
-2.62269e-23
-4.4272e-21
-2.62269e-23
-4.28469e-21
-2.62269e-23
-2.16674e-21
4.0274e-21
-1.93991e-21
-2.62269e-23
-2.62269e-23
-2.62269e-23
-2.62269e-23
1.73071e-21
3.58839e-21
-2.62269e-23
3.31202e-21
-1.86514e-22
-2.62269e-23
3.14516e-21
1.34061e-22
-2.62269e-23
-2.62269e-23
1.61497e-21
5.95732e-21
4.26721e-21
-2.62269e-23
-2.79233e-21
1.33339e-21
2.64692e-21
1.2877e-21
7.884e-21
-1.17747e-20
-2.62269e-23
-7.70939e-21
6.16558e-21
-5.09024e-21
-2.62269e-23
-2.62269e-23
-1.15282e-21
-2.62269e-23
-2.62269e-23
3.3449e-21
-4.39508e-21
-1.86514e-22
-2.0598e-21
1.97288e-21
-3.95669e-21
3.99792e-21
-7.78327e-21
-1.89323e-21
-2.62269e-23
-1.99078e-21
-1.79992e-21
-2.62269e-23
6.99039e-21
5.18917e-21
-3.82005e-21
-2.62269e-23
1.57459e-21
3.12115e-21
1.52079e-21
4.69647e-21
1.62909e-21
1.44347e-21
1.41856e-21
-1.86514e-22
-2.62269e-23
-2.62269e-23
-2.62269e-23
-2.62269e-23
-2.62269e-23
-7.87777e-21
-3.96697e-21
-1.42531e-21
-7.65363e-21
-2.62269e-23
-2.62269e-23
1.13071e-21
-4.73584e-21
-2.62269e-23
-2.62269e-23
-4.50845e-21
-2.62269e-23
8.48746e-21
5.55767e-22
-7.12887e-21
5.55767e-22
3.14798e-21
-1.99543e-21
-1.95512e-21
3.02702e-21
5.55767e-22
-6.45399e-21
5.55767e-22
-4.08289e-21
5.55767e-22
-1.51919e-21
-1.48402e-21
5.55767e-22
4.49825e-21
6.36928e-21
5.55767e-22
5.55767e-22
5.55767e-22
5.55767e-22
-1.39557e-21
-6.78454e-21
2.27509e-21
-6.37722e-21
5.55767e-22
7.27991e-22
5.55767e-22
-2.94568e-21
1.03829e-20
-1.23368e-20
5.55767e-22
5.55767e-22
5.55767e-22
5.55767e-22
5.55767e-22
9.33309e-21
-1.06162e-20
3.21678e-21
5.55767e-22
3.29958e-21
5.55767e-22
-4.5868e-21
5.55767e-22
-6.82143e-21
5.55767e-22
5.55767e-22
-6.63354e-21
5.55767e-22
5.55767e-22
-6.11919e-21
7.29275e-21
5.55767e-22
5.55767e-22
5.55767e-22
-5.58657e-21
-5.65762e-21
5.55767e-22
4.50913e-21
-9.08135e-21
5.55767e-22
2.35184e-21
5.55767e-22
-4.82361e-21
-1.15054e-21
5.55767e-22
5.55767e-22
5.55767e-22
3.91509e-21
7.33862e-21
-5.94868e-21
5.55767e-22
5.55767e-22
9.67838e-21
5.55767e-22
5.55767e-22
5.55767e-22
5.55767e-22
5.55767e-22
5.55767e-22
5.55767e-22
3.10788e-21
5.55767e-22
-4.72138e-21
5.55767e-22
-1.99993e-21
5.55767e-22
-4.05098e-21
-6.40947e-21
5.55767e-22
-3.82072e-21
5.55767e-22
5.55767e-22
5.55767e-22
5.55767e-22
-5.81572e-21
8.80008e-21
5.55767e-22
5.55767e-22
5.55767e-22
5.55767e-22
5.55767e-22
5.55767e-22
5.55767e-22
9.51309e-21
5.55767e-22
5.55767e-22
-6.33459e-21
-2.83395e-21
5.55767e-22
3.83736e-21
-5.55758e-21
5.55767e-22
3.50972e-21
5.55767e-22
5.55767e-22
3.5343e-21
5.55767e-22
-4.86824e-21
5.55767e-22
3.17663e-21
5.55767e-22
-9.91984e-21
1.08597e-20
5.55767e-22
5.55767e-22
-1.98188e-21
5.55767e-22
5.55767e-22
5.55767e-22
2.76488e-21
5.55767e-22
5.55767e-22
1.13937e-20
5.55767e-22
-1.4724e-21
2.54956e-21
5.55767e-22
5.55767e-22
-1.33838e-21
5.55767e-22
5.55767e-22
-3.2154e-21
-6.86458e-21
-8.48367e-21
5.55767e-22
3.91688e-21
-9.70116e-21
-2.86462e-21
5.55767e-22
5.55767e-22
5.55767e-22
5.55767e-22
5.55767e-22
5.55767e-22
7.27991e-22
-1.11209e-20
5.55767e-22
5.55767e-22
5.55767e-22
6.0197e-21
5.55767e-22
-4.90256e-21
5.55767e-22
5.55767e-22
-4.47473e-21
-4.3924e-21
2.90327e-21
5.55767e-22
5.55767e-22
5.55767e-22
-8.5582e-21
5.55767e-22
5.55767e-22
-8.11988e-21
7.04273e-21
2.56857e-21
5.55767e-22
5.55767e-22
5.55767e-22
-9.18767e-21
5.55767e-22
5.55767e-22
5.55767e-22
5.55767e-22
5.55767e-22
5.55767e-22
3.89143e-21
5.55767e-22
5.55767e-22
-9.46773e-21
-6.19138e-21
-2.6789e-21
5.55767e-22
5.55767e-22
3.63737e-21
3.83543e-22
-5.23968e-21
-5.31661e-21
9.22381e-21
3.10363e-21
1.5391e-20
-1.19951e-21
1.07634e-20
-8.45105e-22
-4.90695e-22
-8.45105e-22
1.35232e-20
-4.90695e-22
-8.45105e-22
6.16603e-21
9.67959e-21
5.58792e-21
-4.90695e-22
2.61773e-21
1.20867e-20
8.52119e-21
-8.45105e-22
1.43788e-20
-3.69892e-21
1.96035e-21
4.67072e-21
-3.91069e-21
1.82013e-21
-6.43965e-21
2.08497e-21
-8.45105e-22
9.46575e-21
-3.64645e-21
3.96582e-21
1.16872e-20
1.83393e-21
8.65024e-21
4.35673e-21
-5.61639e-21
3.49692e-21
8.0462e-21
-8.45105e-22
2.49682e-20
-4.90695e-22
3.14128e-21
1.12658e-20
7.21414e-21
-4.90695e-22
6.95522e-21
1.04889e-20
7.05941e-21
2.69177e-21
2.98625e-21
3.28173e-21
-8.45105e-22
2.81246e-21
-4.44669e-21
-1.39681e-20
5.78542e-21
9.11835e-21
-4.90695e-22
-8.45105e-22
-8.45105e-22
1.71499e-20
2.34151e-21
-6.41352e-21
8.0748e-21
1.56532e-20
1.83791e-20
-8.45105e-22
7.17779e-21
7.04784e-21
1.18606e-20
-3.2735e-21
-8.45105e-22
-8.45105e-22
1.13988e-20
-8.45105e-22
-8.45105e-22
8.27616e-21
-1.19951e-21
-1.19951e-21
-8.45105e-22
1.17906e-20
3.17929e-21
1.13779e-20
7.28761e-21
1.16879e-20
-8.45105e-22
-8.45105e-22
1.11146e-20
6.65051e-21
3.0194e-21
6.41052e-21
6.29357e-21
-4.90695e-22
9.34373e-21
9.53148e-21
-8.45105e-22
-8.45105e-22
-4.26103e-21
-4.20915e-21
2.46794e-21
1.73147e-20
8.08693e-21
1.96565e-21
-8.45105e-22
-8.45105e-22
1.58853e-20
-1.36285e-22
-8.45105e-22
7.47413e-21
1.5181e-20
-3.65107e-21
1.5649e-21
1.52406e-21
9.17979e-21
4.08841e-21
4.01081e-21
-8.45105e-22
-5.19534e-21
8.06233e-21
-4.90695e-22
3.6421e-21
1.16976e-20
-8.83293e-21
1.1288e-20
7.58311e-21
7.09789e-21
2.88489e-21
1.08641e-20
3.11395e-21
6.59642e-21
1.03142e-20
2.57937e-21
-8.45105e-22
-4.1545e-21
-8.45105e-22
-4.04329e-21
1.94447e-21
-8.45105e-22
1.2017e-20
2.14174e-21
5.02735e-21
7.81431e-21
5.18442e-21
-8.45105e-22
4.9937e-21
1.06466e-20
1.04639e-20
2.11444e-21
7.19228e-21
9.93408e-21
-1.19951e-21
4.37528e-21
-1.19951e-21
1.86735e-20
4.13207e-21
-8.45105e-22
3.62231e-21
3.90101e-21
1.24612e-20
4.10784e-21
1.61981e-20
7.7123e-21
-8.45105e-22
-8.45105e-22
-8.45105e-22
3.33977e-21
3.27486e-21
-4.90126e-21
6.43292e-21
6.664e-21
-8.45105e-22
1.02351e-20
-4.24365e-21
-8.45105e-22
2.79364e-21
-8.45105e-22
-8.45105e-22
-4.90695e-22
-8.45105e-22
1.49403e-20
8.40198e-21
1.15197e-20
-8.45105e-22
-4.90695e-22
-9.50455e-21
7.6736e-21
1.0565e-20
-6.45947e-21
-3.78492e-21
-8.45105e-22
4.86077e-21
1.42464e-20
-3.25967e-21
2.19353e-20
-3.53293e-21
1.3627e-20
2.27682e-20
-8.45105e-22
-1.19951e-21
3.7939e-21
7.93327e-21
1.15004e-21
-3.20605e-21
-1.28134e-20
-3.09594e-21
-3.04228e-21
7.04344e-23
-5.94579e-21
9.66159e-21
4.30303e-22
-6.00496e-21
5.6891e-21
7.04344e-23
-2.89434e-22
7.04344e-23
1.12849e-20
7.04344e-23
5.50134e-21
1.00406e-20
-1.04506e-20
7.04344e-23
-5.38524e-21
-1.38966e-20
5.00709e-21
7.04344e-23
-9.1354e-21
7.04344e-23
8.61913e-21
-1.25353e-20
7.04344e-23
-8.77072e-21
4.06233e-21
3.63481e-21
7.04344e-23
-3.72194e-21
-3.65767e-21
7.04344e-23
-1.47007e-20
3.6122e-21
7.04344e-23
-7.13492e-21
7.04344e-23
7.04344e-23
7.04344e-23
1.002e-20
7.04344e-23
-3.73845e-21
7.04344e-23
6.0411e-21
-5.43918e-21
7.04344e-23
7.04344e-23
4.30303e-22
-1.16125e-20
1.12078e-20
7.04344e-23
7.04344e-23
-5.40883e-21
-1.50275e-20
4.65792e-21
-9.65659e-21
-5.4304e-21
7.04344e-23
9.67115e-21
7.04344e-23
-5.11446e-21
-4.31905e-21
-4.60454e-21
-4.89128e-21
1.74705e-20
7.04344e-23
4.10039e-21
1.26752e-20
-7.71862e-21
7.04344e-23
1.20811e-20
7.04344e-23
7.04344e-23
7.04344e-23
-3.44451e-21
3.52581e-21
7.04344e-23
-1.40063e-20
-1.01375e-20
-3.15661e-21
7.04344e-23
7.04344e-23
7.90171e-22
7.04344e-23
9.31848e-21
7.04344e-23
7.04344e-23
-5.91872e-21
5.60432e-21
1.13105e-20
5.77822e-21
-1.0804e-20
1.11266e-20
-5.01019e-21
1.07792e-20
-2.89434e-22
1.04435e-20
7.04344e-23
7.04344e-23
-5.23474e-21
7.04344e-23
4.50177e-21
-4.28581e-21
4.71273e-21
3.92042e-21
1.28458e-20
1.29953e-20
7.04344e-23
7.04344e-23
7.8005e-21
7.04344e-23
4.30303e-22
-1.1305e-20
7.04344e-23
-7.02648e-21
-2.89434e-22
7.04344e-23
-6.67176e-21
-3.60341e-21
1.05636e-20
-6.33478e-21
9.8753e-21
3.16542e-21
-1.28194e-20
-2.92054e-21
-8.75043e-21
8.74182e-21
7.04344e-23
5.65709e-21
5.56241e-21
7.04344e-23
1.03254e-20
7.04344e-23
7.04344e-23
-2.89434e-22
1.03437e-20
7.04344e-23
-6.49302e-22
4.77939e-21
-4.91859e-21
-9.03098e-21
1.34912e-20
7.04344e-23
9.43668e-21
-9.14929e-21
7.04344e-23
7.04344e-23
-4.327e-21
-8.22773e-21
-1.62568e-20
7.04344e-23
1.9644e-20
-3.9963e-21
-7.57752e-21
7.04344e-23
7.04344e-23
4.30303e-22
3.83354e-21
-1.40316e-20
4.07905e-21
7.04344e-23
7.04344e-23
-1.31473e-20
-5.71278e-21
1.28681e-20
-6.58595e-21
7.04344e-23
7.04344e-23
4.30303e-22
-5.11404e-21
7.04344e-23
7.04344e-23
-1.11838e-20
-1.10052e-20
-1.08297e-20
1.07981e-20
7.90171e-22
-1.51567e-20
1.50517e-20
-4.96273e-21
7.04344e-23
-8.96206e-21
-2.89434e-22
4.43491e-21
-2.21019e-20
-4.50724e-21
-8.58209e-21
-4.3655e-21
7.04344e-23
7.04344e-23
-1.15466e-20
7.04344e-23
3.0929e-21
1.55053e-20
4.04675e-21
7.04344e-23
1.44144e-22
1.44144e-22
1.44144e-22
-6.20483e-21
-1.16366e-20
-5.28927e-21
1.44144e-22
1.44144e-22
1.44144e-22
-4.93022e-21
1.44144e-22
1.44144e-22
1.44144e-22
1.44144e-22
9.46162e-21
1.44144e-22
1.88795e-20
1.44144e-22
-8.55762e-21
1.44144e-22
1.44144e-22
1.3271e-20
-5.82475e-22
8.85979e-21
1.44144e-22
4.00442e-21
-3.65072e-21
1.44144e-22
7.47881e-21
1.44144e-22
3.68823e-21
3.62818e-21
1.44144e-22
1.44144e-22
1.41103e-20
6.65175e-21
1.44144e-22
-1.94492e-20
-5.82475e-22
6.22172e-21