/*--------------------------------*- C++ -*----------------------------------*\
| =========                 |                                                 |
| \\      /  F ield         | OpenFOAM: The Open Source CFD Toolbox           |
|  \\    /   O peration     | Version:  4.x                                   |
|   \\  /    A nd           | Web:      www.OpenFOAM.org                      |
|    \\/     M anipulation  |                                                 |
\*---------------------------------------------------------------------------*/
FoamFile
{
    version     2.0;
    format      ascii;
    class       volScalarField;
    location    "0";
    object      V;
}
// * * * * * * * * * * * * * * * * * * * * * * * * * * * * * * * * * * * * * //

dimensions      [0 3 0 0 0 0 0];

internalField   nonuniform List<scalar> 
21500
(
1.4146e-10
1.4146e-10
1.4146e-10
1.4146e-10
1.4146e-10
1.4146e-10
1.4146e-10
1.4146e-10
1.4146e-10
1.4146e-10
1.4146e-10
1.4146e-10
1.4146e-10
1.4146e-10
1.4146e-10
1.4146e-10
1.4146e-10
1.4146e-10
1.4146e-10
1.4146e-10
1.4146e-10
1.4146e-10
1.4146e-10
1.4146e-10
1.4146e-10
1.4146e-10
1.4146e-10
1.4146e-10
1.4146e-10
1.4146e-10
1.4146e-10
1.4146e-10
1.4146e-10
1.4146e-10
1.4146e-10
1.4146e-10
1.4146e-10
1.4146e-10
1.4146e-10
1.4146e-10
1.4146e-10
1.4146e-10
1.4146e-10
1.4146e-10
1.4146e-10
1.4146e-10
1.4146e-10
1.4146e-10
1.4146e-10
1.4146e-10
3.94246e-10
3.94246e-10
3.94246e-10
3.94246e-10
3.94246e-10
3.94246e-10
3.94246e-10
3.94246e-10
3.94246e-10
3.94246e-10
3.94246e-10
3.94246e-10
3.94246e-10
3.94246e-10
3.94246e-10
3.94246e-10
3.94246e-10
3.94246e-10
3.94246e-10
3.94246e-10
3.94246e-10
3.94246e-10
3.94246e-10
3.94246e-10
3.94246e-10
3.94246e-10
3.94246e-10
3.94246e-10
3.94246e-10
3.94246e-10
3.94246e-10
3.94246e-10
3.94246e-10
3.94246e-10
3.94246e-10
3.94246e-10
3.94246e-10
3.94246e-10
3.94246e-10
3.94246e-10
3.94246e-10
3.94246e-10
3.94246e-10
3.94246e-10
3.94246e-10
3.94246e-10
3.94246e-10
3.94246e-10
3.94246e-10
3.94246e-10
6.06025e-10
6.06025e-10
6.06025e-10
6.06025e-10
6.06025e-10
6.06025e-10
6.06025e-10
6.06025e-10
6.06025e-10
6.06025e-10
6.06025e-10
6.06025e-10
6.06025e-10
6.06025e-10
6.06025e-10
6.06025e-10
6.06025e-10
6.06025e-10
6.06025e-10
6.06025e-10
6.06025e-10
6.06025e-10
6.06025e-10
6.06025e-10
6.06025e-10
6.06025e-10
6.06025e-10
6.06025e-10
6.06025e-10
6.06025e-10
6.06025e-10
6.06025e-10
6.06025e-10
6.06025e-10
6.06025e-10
6.06025e-10
6.06025e-10
6.06025e-10
6.06025e-10
6.06025e-10
6.06025e-10
6.06025e-10
6.06025e-10
6.06025e-10
6.06025e-10
6.06025e-10
6.06025e-10
6.06025e-10
6.06025e-10
6.06025e-10
7.81886e-10
7.81886e-10
7.81886e-10
7.81886e-10
7.81886e-10
7.81886e-10
7.81886e-10
7.81886e-10
7.81886e-10
7.81886e-10
7.81886e-10
7.81886e-10
7.81886e-10
7.81886e-10
7.81886e-10
7.81886e-10
7.81886e-10
7.81886e-10
7.81886e-10
7.81886e-10
7.81886e-10
7.81886e-10
7.81886e-10
7.81886e-10
7.81886e-10
7.81886e-10
7.81886e-10
7.81886e-10
7.81886e-10
7.81886e-10
7.81886e-10
7.81886e-10
7.81886e-10
7.81886e-10
7.81886e-10
7.81886e-10
7.81886e-10
7.81886e-10
7.81886e-10
7.81886e-10
7.81886e-10
7.81886e-10
7.81886e-10
7.81886e-10
7.81886e-10
7.81886e-10
7.81886e-10
7.81886e-10
7.81886e-10
7.81886e-10
9.26341e-10
9.26341e-10
9.26341e-10
9.26341e-10
9.26341e-10
9.26341e-10
9.26341e-10
9.26341e-10
9.26341e-10
9.26341e-10
9.26341e-10
9.26341e-10
9.26341e-10
9.26341e-10
9.26341e-10
9.26341e-10
9.26341e-10
9.26341e-10
9.26341e-10
9.26341e-10
9.26341e-10
9.26341e-10
9.26341e-10
9.26341e-10
9.26341e-10
9.26341e-10
9.26341e-10
9.26341e-10
9.26341e-10
9.26341e-10
9.26341e-10
9.26341e-10
9.26341e-10
9.26341e-10
9.26341e-10
9.26341e-10
9.26341e-10
9.26341e-10
9.26341e-10
9.26341e-10
9.26341e-10
9.26341e-10
9.26341e-10
9.26341e-10
9.26341e-10
9.26341e-10
9.26341e-10
9.26341e-10
9.26341e-10
9.26341e-10
1.04339e-09
1.04339e-09
1.04339e-09
1.04339e-09
1.04339e-09
1.04339e-09
1.04339e-09
1.04339e-09
1.04339e-09
1.04339e-09
1.04339e-09
1.04339e-09
1.04339e-09
1.04339e-09
1.04339e-09
1.04339e-09
1.04339e-09
1.04339e-09
1.04339e-09
1.04339e-09
1.04339e-09
1.04339e-09
1.04339e-09
1.04339e-09
1.04339e-09
1.04339e-09
1.04339e-09
1.04339e-09
1.04339e-09
1.04339e-09
1.04339e-09
1.04339e-09
1.04339e-09
1.04339e-09
1.04339e-09
1.04339e-09
1.04339e-09
1.04339e-09
1.04339e-09
1.04339e-09
1.04339e-09
1.04339e-09
1.04339e-09
1.04339e-09
1.04339e-09
1.04339e-09
1.04339e-09
1.04339e-09
1.04339e-09
1.04339e-09
1.13656e-09
1.13656e-09
1.13656e-09
1.13656e-09
1.13656e-09
1.13656e-09
1.13656e-09
1.13656e-09
1.13656e-09
1.13656e-09
1.13656e-09
1.13656e-09
1.13656e-09
1.13656e-09
1.13656e-09
1.13656e-09
1.13656e-09
1.13656e-09
1.13656e-09
1.13656e-09
1.13656e-09
1.13656e-09
1.13656e-09
1.13656e-09
1.13656e-09
1.13656e-09
1.13656e-09
1.13656e-09
1.13656e-09
1.13656e-09
1.13656e-09
1.13656e-09
1.13656e-09
1.13656e-09
1.13656e-09
1.13656e-09
1.13656e-09
1.13656e-09
1.13656e-09
1.13656e-09
1.13656e-09
1.13656e-09
1.13656e-09
1.13656e-09
1.13656e-09
1.13656e-09
1.13656e-09
1.13656e-09
1.13656e-09
1.13656e-09
1.209e-09
1.209e-09
1.209e-09
1.209e-09
1.209e-09
1.209e-09
1.209e-09
1.209e-09
1.209e-09
1.209e-09
1.209e-09
1.209e-09
1.209e-09
1.209e-09
1.209e-09
1.209e-09
1.209e-09
1.209e-09
1.209e-09
1.209e-09
1.209e-09
1.209e-09
1.209e-09
1.209e-09
1.209e-09
1.209e-09
1.209e-09
1.209e-09
1.209e-09
1.209e-09
1.209e-09
1.209e-09
1.209e-09
1.209e-09
1.209e-09
1.209e-09
1.209e-09
1.209e-09
1.209e-09
1.209e-09
1.209e-09
1.209e-09
1.209e-09
1.209e-09
1.209e-09
1.209e-09
1.209e-09
1.209e-09
1.209e-09
1.209e-09
1.26347e-09
1.26347e-09
1.26347e-09
1.26347e-09
1.26347e-09
1.26347e-09
1.26347e-09
1.26347e-09
1.26347e-09
1.26347e-09
1.26347e-09
1.26347e-09
1.26347e-09
1.26347e-09
1.26347e-09
1.26347e-09
1.26347e-09
1.26347e-09
1.26347e-09
1.26347e-09
1.26347e-09
1.26347e-09
1.26347e-09
1.26347e-09
1.26347e-09
1.26347e-09
1.26347e-09
1.26347e-09
1.26347e-09
1.26347e-09
1.26347e-09
1.26347e-09
1.26347e-09
1.26347e-09
1.26347e-09
1.26347e-09
1.26347e-09
1.26347e-09
1.26347e-09
1.26347e-09
1.26347e-09
1.26347e-09
1.26347e-09
1.26347e-09
1.26347e-09
1.26347e-09
1.26347e-09
1.26347e-09
1.26347e-09
1.26347e-09
1.30243e-09
1.30243e-09
1.30243e-09
1.30243e-09
1.30243e-09
1.30243e-09
1.30243e-09
1.30243e-09
1.30243e-09
1.30243e-09
1.30243e-09
1.30243e-09
1.30243e-09
1.30243e-09
1.30243e-09
1.30243e-09
1.30243e-09
1.30243e-09
1.30243e-09
1.30243e-09
1.30243e-09
1.30243e-09
1.30243e-09
1.30243e-09
1.30243e-09
1.30243e-09
1.30243e-09
1.30243e-09
1.30243e-09
1.30243e-09
1.30243e-09
1.30243e-09
1.30243e-09
1.30243e-09
1.30243e-09
1.30243e-09
1.30243e-09
1.30243e-09
1.30243e-09
1.30243e-09
1.30243e-09
1.30243e-09
1.30243e-09
1.30243e-09
1.30243e-09
1.30243e-09
1.30243e-09
1.30243e-09
1.30243e-09
1.30243e-09
1.32802e-09
1.32802e-09
1.32802e-09
1.32802e-09
1.32802e-09
1.32802e-09
1.32802e-09
1.32802e-09
1.32802e-09
1.32802e-09
1.32802e-09
1.32802e-09
1.32802e-09
1.32802e-09
1.32802e-09
1.32802e-09
1.32802e-09
1.32802e-09
1.32802e-09
1.32802e-09
1.32802e-09
1.32802e-09
1.32802e-09
1.32802e-09
1.32802e-09
1.32802e-09
1.32802e-09
1.32802e-09
1.32802e-09
1.32802e-09
1.32802e-09
1.32802e-09
1.32802e-09
1.32802e-09
1.32802e-09
1.32802e-09
1.32802e-09
1.32802e-09
1.32802e-09
1.32802e-09
1.32802e-09
1.32802e-09
1.32802e-09
1.32802e-09
1.32802e-09
1.32802e-09
1.32802e-09
1.32802e-09
1.32802e-09
1.32802e-09
1.34215e-09
1.34215e-09
1.34215e-09
1.34215e-09
1.34215e-09
1.34215e-09
1.34215e-09
1.34215e-09
1.34215e-09
1.34215e-09
1.34215e-09
1.34215e-09
1.34215e-09
1.34215e-09
1.34215e-09
1.34215e-09
1.34215e-09
1.34215e-09
1.34215e-09
1.34215e-09
1.34215e-09
1.34215e-09
1.34215e-09
1.34215e-09
1.34215e-09
1.34215e-09
1.34215e-09
1.34215e-09
1.34215e-09
1.34215e-09
1.34215e-09
1.34215e-09
1.34215e-09
1.34215e-09
1.34215e-09
1.34215e-09
1.34215e-09
1.34215e-09
1.34215e-09
1.34215e-09
1.34215e-09
1.34215e-09
1.34215e-09
1.34215e-09
1.34215e-09
1.34215e-09
1.34215e-09
1.34215e-09
1.34215e-09
1.34215e-09
1.3465e-09
1.3465e-09
1.3465e-09
1.3465e-09
1.3465e-09
1.3465e-09
1.3465e-09
1.3465e-09
1.3465e-09
1.3465e-09
1.3465e-09
1.3465e-09
1.3465e-09
1.3465e-09
1.3465e-09
1.3465e-09
1.3465e-09
1.3465e-09
1.3465e-09
1.3465e-09
1.3465e-09
1.3465e-09
1.3465e-09
1.3465e-09
1.3465e-09
1.3465e-09
1.3465e-09
1.3465e-09
1.3465e-09
1.3465e-09
1.3465e-09
1.3465e-09
1.3465e-09
1.3465e-09
1.3465e-09
1.3465e-09
1.3465e-09
1.3465e-09
1.3465e-09
1.3465e-09
1.3465e-09
1.3465e-09
1.3465e-09
1.3465e-09
1.3465e-09
1.3465e-09
1.3465e-09
1.3465e-09
1.3465e-09
1.3465e-09
1.34255e-09
1.34255e-09
1.34255e-09
1.34255e-09
1.34255e-09
1.34255e-09
1.34255e-09
1.34255e-09
1.34255e-09
1.34255e-09
1.34255e-09
1.34255e-09
1.34255e-09
1.34255e-09
1.34255e-09
1.34255e-09
1.34255e-09
1.34255e-09
1.34255e-09
1.34255e-09
1.34255e-09
1.34255e-09
1.34255e-09
1.34255e-09
1.34255e-09
1.34255e-09
1.34255e-09
1.34255e-09
1.34255e-09
1.34255e-09
1.34255e-09
1.34255e-09
1.34255e-09
1.34255e-09
1.34255e-09
1.34255e-09
1.34255e-09
1.34255e-09
1.34255e-09
1.34255e-09
1.34255e-09
1.34255e-09
1.34255e-09
1.34255e-09
1.34255e-09
1.34255e-09
1.34255e-09
1.34255e-09
1.34255e-09
1.34255e-09
1.33159e-09
1.33159e-09
1.33159e-09
1.33159e-09
1.33159e-09
1.33159e-09
1.33159e-09
1.33159e-09
1.33159e-09
1.33159e-09
1.33159e-09
1.33159e-09
1.33159e-09
1.33159e-09
1.33159e-09
1.33159e-09
1.33159e-09
1.33159e-09
1.33159e-09
1.33159e-09
1.33159e-09
1.33159e-09
1.33159e-09
1.33159e-09
1.33159e-09
1.33159e-09
1.33159e-09
1.33159e-09
1.33159e-09
1.33159e-09
1.33159e-09
1.33159e-09
1.33159e-09
1.33159e-09
1.33159e-09
1.33159e-09
1.33159e-09
1.33159e-09
1.33159e-09
1.33159e-09
1.33159e-09
1.33159e-09
1.33159e-09
1.33159e-09
1.33159e-09
1.33159e-09
1.33159e-09
1.33159e-09
1.33159e-09
1.33159e-09
1.31476e-09
1.31476e-09
1.31476e-09
1.31476e-09
1.31476e-09
1.31476e-09
1.31476e-09
1.31476e-09
1.31476e-09
1.31476e-09
1.31476e-09
1.31476e-09
1.31476e-09
1.31476e-09
1.31476e-09
1.31476e-09
1.31476e-09
1.31476e-09
1.31476e-09
1.31476e-09
1.31476e-09
1.31476e-09
1.31476e-09
1.31476e-09
1.31476e-09
1.31476e-09
1.31476e-09
1.31476e-09
1.31476e-09
1.31476e-09
1.31476e-09
1.31476e-09
1.31476e-09
1.31476e-09
1.31476e-09
1.31476e-09
1.31476e-09
1.31476e-09
1.31476e-09
1.31476e-09
1.31476e-09
1.31476e-09
1.31476e-09
1.31476e-09
1.31476e-09
1.31476e-09
1.31476e-09
1.31476e-09
1.31476e-09
1.31476e-09
1.29306e-09
1.29306e-09
1.29306e-09
1.29306e-09
1.29306e-09
1.29306e-09
1.29306e-09
1.29306e-09
1.29306e-09
1.29306e-09
1.29306e-09
1.29306e-09
1.29306e-09
1.29306e-09
1.29306e-09
1.29306e-09
1.29306e-09
1.29306e-09
1.29306e-09
1.29306e-09
1.29306e-09
1.29306e-09
1.29306e-09
1.29306e-09
1.29306e-09
1.29306e-09
1.29306e-09
1.29306e-09
1.29306e-09
1.29306e-09
1.29306e-09
1.29306e-09
1.29306e-09
1.29306e-09
1.29306e-09
1.29306e-09
1.29306e-09
1.29306e-09
1.29306e-09
1.29306e-09
1.29306e-09
1.29306e-09
1.29306e-09
1.29306e-09
1.29306e-09
1.29306e-09
1.29306e-09
1.29306e-09
1.29306e-09
1.29306e-09
1.26735e-09
1.26735e-09
1.26735e-09
1.26735e-09
1.26735e-09
1.26735e-09
1.26735e-09
1.26735e-09
1.26735e-09
1.26735e-09
1.26735e-09
1.26735e-09
1.26735e-09
1.26735e-09
1.26735e-09
1.26735e-09
1.26735e-09
1.26735e-09
1.26735e-09
1.26735e-09
1.26735e-09
1.26735e-09
1.26735e-09
1.26735e-09
1.26735e-09
1.26735e-09
1.26735e-09
1.26735e-09
1.26735e-09
1.26735e-09
1.26735e-09
1.26735e-09
1.26735e-09
1.26735e-09
1.26735e-09
1.26735e-09
1.26735e-09
1.26735e-09
1.26735e-09
1.26735e-09
1.26735e-09
1.26735e-09
1.26735e-09
1.26735e-09
1.26735e-09
1.26735e-09
1.26735e-09
1.26735e-09
1.26735e-09
1.26735e-09
1.23839e-09
1.23839e-09
1.23839e-09
1.23839e-09
1.23839e-09
1.23839e-09
1.23839e-09
1.23839e-09
1.23839e-09
1.23839e-09
1.23839e-09
1.23839e-09
1.23839e-09
1.23839e-09
1.23839e-09
1.23839e-09
1.23839e-09
1.23839e-09
1.23839e-09
1.23839e-09
1.23839e-09
1.23839e-09
1.23839e-09
1.23839e-09
1.23839e-09
1.23839e-09
1.23839e-09
1.23839e-09
1.23839e-09
1.23839e-09
1.23839e-09
1.23839e-09
1.23839e-09
1.23839e-09
1.23839e-09
1.23839e-09
1.23839e-09
1.23839e-09
1.23839e-09
1.23839e-09
1.23839e-09
1.23839e-09
1.23839e-09
1.23839e-09
1.23839e-09
1.23839e-09
1.23839e-09
1.23839e-09
1.23839e-09
1.23839e-09
1.20685e-09
1.20685e-09
1.20685e-09
1.20685e-09
1.20685e-09
1.20685e-09
1.20685e-09
1.20685e-09
1.20685e-09
1.20685e-09
1.20685e-09
1.20685e-09
1.20685e-09
1.20685e-09
1.20685e-09
1.20685e-09
1.20685e-09
1.20685e-09
1.20685e-09
1.20685e-09
1.20685e-09
1.20685e-09
1.20685e-09
1.20685e-09
1.20685e-09
1.20685e-09
1.20685e-09
1.20685e-09
1.20685e-09
1.20685e-09
1.20685e-09
1.20685e-09
1.20685e-09
1.20685e-09
1.20685e-09
1.20685e-09
1.20685e-09
1.20685e-09
1.20685e-09
1.20685e-09
1.20685e-09
1.20685e-09
1.20685e-09
1.20685e-09
1.20685e-09
1.20685e-09
1.20685e-09
1.20685e-09
1.20685e-09
1.20685e-09
1.17331e-09
1.17331e-09
1.17331e-09
1.17331e-09
1.17331e-09
1.17331e-09
1.17331e-09
1.17331e-09
1.17331e-09
1.17331e-09
1.17331e-09
1.17331e-09
1.17331e-09
1.17331e-09
1.17331e-09
1.17331e-09
1.17331e-09
1.17331e-09
1.17331e-09
1.17331e-09
1.17331e-09
1.17331e-09
1.17331e-09
1.17331e-09
1.17331e-09
1.17331e-09
1.17331e-09
1.17331e-09
1.17331e-09
1.17331e-09
1.17331e-09
1.17331e-09
1.17331e-09
1.17331e-09
1.17331e-09
1.17331e-09
1.17331e-09
1.17331e-09
1.17331e-09
1.17331e-09
1.17331e-09
1.17331e-09
1.17331e-09
1.17331e-09
1.17331e-09
1.17331e-09
1.17331e-09
1.17331e-09
1.17331e-09
1.17331e-09
1.13825e-09
1.13825e-09
1.13825e-09
1.13825e-09
1.13825e-09
1.13825e-09
1.13825e-09
1.13825e-09
1.13825e-09
1.13825e-09
1.13825e-09
1.13825e-09
1.13825e-09
1.13825e-09
1.13825e-09
1.13825e-09
1.13825e-09
1.13825e-09
1.13825e-09
1.13825e-09
1.13825e-09
1.13825e-09
1.13825e-09
1.13825e-09
1.13825e-09
1.13825e-09
1.13825e-09
1.13825e-09
1.13825e-09
1.13825e-09
1.13825e-09
1.13825e-09
1.13825e-09
1.13825e-09
1.13825e-09
1.13825e-09
1.13825e-09
1.13825e-09
1.13825e-09
1.13825e-09
1.13825e-09
1.13825e-09
1.13825e-09
1.13825e-09
1.13825e-09
1.13825e-09
1.13825e-09
1.13825e-09
1.13825e-09
1.13825e-09
1.10212e-09
1.10212e-09
1.10212e-09
1.10212e-09
1.10212e-09
1.10212e-09
1.10212e-09
1.10212e-09
1.10212e-09
1.10212e-09
1.10212e-09
1.10212e-09
1.10212e-09
1.10212e-09
1.10212e-09
1.10212e-09
1.10212e-09
1.10212e-09
1.10212e-09
1.10212e-09
1.10212e-09
1.10212e-09
1.10212e-09
1.10212e-09
1.10212e-09
1.10212e-09
1.10212e-09
1.10212e-09
1.10212e-09
1.10212e-09
1.10212e-09
1.10212e-09
1.10212e-09
1.10212e-09
1.10212e-09
1.10212e-09
1.10212e-09
1.10212e-09
1.10212e-09
1.10212e-09
1.10212e-09
1.10212e-09
1.10212e-09
1.10212e-09
1.10212e-09
1.10212e-09
1.10212e-09
1.10212e-09
1.10212e-09
1.10212e-09
1.06527e-09
1.06527e-09
1.06527e-09
1.06527e-09
1.06527e-09
1.06527e-09
1.06527e-09
1.06527e-09
1.06527e-09
1.06527e-09
1.06527e-09
1.06527e-09
1.06527e-09
1.06527e-09
1.06527e-09
1.06527e-09
1.06527e-09
1.06527e-09
1.06527e-09
1.06527e-09
1.06527e-09
1.06527e-09
1.06527e-09
1.06527e-09
1.06527e-09
1.06527e-09
1.06527e-09
1.06527e-09
1.06527e-09
1.06527e-09
1.06527e-09
1.06527e-09
1.06527e-09
1.06527e-09
1.06527e-09
1.06527e-09
1.06527e-09
1.06527e-09
1.06527e-09
1.06527e-09
1.06527e-09
1.06527e-09
1.06527e-09
1.06527e-09
1.06527e-09
1.06527e-09
1.06527e-09
1.06527e-09
1.06527e-09
1.06527e-09
1.02804e-09
1.02804e-09
1.02804e-09
1.02804e-09
1.02804e-09
1.02804e-09
1.02804e-09
1.02804e-09
1.02804e-09
1.02804e-09
1.02804e-09
1.02804e-09
1.02804e-09
1.02804e-09
1.02804e-09
1.02804e-09
1.02804e-09
1.02804e-09
1.02804e-09
1.02804e-09
1.02804e-09
1.02804e-09
1.02804e-09
1.02804e-09
1.02804e-09
1.02804e-09
1.02804e-09
1.02804e-09
1.02804e-09
1.02804e-09
1.02804e-09
1.02804e-09
1.02804e-09
1.02804e-09
1.02804e-09
1.02804e-09
1.02804e-09
1.02804e-09
1.02804e-09
1.02804e-09
1.02804e-09
1.02804e-09
1.02804e-09
1.02804e-09
1.02804e-09
1.02804e-09
1.02804e-09
1.02804e-09
1.02804e-09
1.02804e-09
9.90685e-10
9.90685e-10
9.90685e-10
9.90685e-10
9.90685e-10
9.90685e-10
9.90685e-10
9.90685e-10
9.90685e-10
9.90685e-10
9.90685e-10
9.90685e-10
9.90685e-10
9.90685e-10
9.90685e-10
9.90685e-10
9.90685e-10
9.90685e-10
9.90685e-10
9.90685e-10
9.90685e-10
9.90685e-10
9.90685e-10
9.90685e-10
9.90685e-10
9.90685e-10
9.90685e-10
9.90685e-10
9.90685e-10
9.90685e-10
9.90685e-10
9.90685e-10
9.90685e-10
9.90685e-10
9.90685e-10
9.90685e-10
9.90685e-10
9.90685e-10
9.90685e-10
9.90685e-10
9.90685e-10
9.90685e-10
9.90685e-10
9.90685e-10
9.90685e-10
9.90685e-10
9.90685e-10
9.90685e-10
9.90685e-10
9.90685e-10
9.53441e-10
9.53441e-10
9.53441e-10
9.53441e-10
9.53441e-10
9.53441e-10
9.53441e-10
9.53441e-10
9.53441e-10
9.53441e-10
9.53441e-10
9.53441e-10
9.53441e-10
9.53441e-10
9.53441e-10
9.53441e-10
9.53441e-10
9.53441e-10
9.53441e-10
9.53441e-10
9.53441e-10
9.53441e-10
9.53441e-10
9.53441e-10
9.53441e-10
9.53441e-10
9.53441e-10
9.53441e-10
9.53441e-10
9.53441e-10
9.53441e-10
9.53441e-10
9.53441e-10
9.53441e-10
9.53441e-10
9.53441e-10
9.53441e-10
9.53441e-10
9.53441e-10
9.53441e-10
9.53441e-10
9.53441e-10
9.53441e-10
9.53441e-10
9.53441e-10
9.53441e-10
9.53441e-10
9.53441e-10
9.53441e-10
9.53441e-10
9.16501e-10
9.16501e-10
9.16501e-10
9.16501e-10
9.16501e-10
9.16501e-10
9.16501e-10
9.16501e-10
9.16501e-10
9.16501e-10
9.16501e-10
9.16501e-10
9.16501e-10
9.16501e-10
9.16501e-10
9.16501e-10
9.16501e-10
9.16501e-10
9.16501e-10
9.16501e-10
9.16501e-10
9.16501e-10
9.16501e-10
9.16501e-10
9.16501e-10
9.16501e-10
9.16501e-10
9.16501e-10
9.16501e-10
9.16501e-10
9.16501e-10
9.16501e-10
9.16501e-10
9.16501e-10
9.16501e-10
9.16501e-10
9.16501e-10
9.16501e-10
9.16501e-10
9.16501e-10
9.16501e-10
9.16501e-10
9.16501e-10
9.16501e-10
9.16501e-10
9.16501e-10
9.16501e-10
9.16501e-10
9.16501e-10
9.16501e-10
8.80029e-10
8.80029e-10
8.80029e-10
8.80029e-10
8.80029e-10
8.80029e-10
8.80029e-10
8.80029e-10
8.80029e-10
8.80029e-10
8.80029e-10
8.80029e-10
8.80029e-10
8.80029e-10
8.80029e-10
8.80029e-10
8.80029e-10
8.80029e-10
8.80029e-10
8.80029e-10
8.80029e-10
8.80029e-10
8.80029e-10
8.80029e-10
8.80029e-10
8.80029e-10
8.80029e-10
8.80029e-10
8.80029e-10
8.80029e-10
8.80029e-10
8.80029e-10
8.80029e-10
8.80029e-10
8.80029e-10
8.80029e-10
8.80029e-10
8.80029e-10
8.80029e-10
8.80029e-10
8.80029e-10
8.80029e-10
8.80029e-10
8.80029e-10
8.80029e-10
8.80029e-10
8.80029e-10
8.80029e-10
8.80029e-10
8.80029e-10
8.4416e-10
8.4416e-10
8.4416e-10
8.4416e-10
8.4416e-10
8.4416e-10
8.4416e-10
8.4416e-10
8.4416e-10
8.4416e-10
8.4416e-10
8.4416e-10
8.4416e-10
8.4416e-10
8.4416e-10
8.4416e-10
8.4416e-10
8.4416e-10
8.4416e-10
8.4416e-10
8.4416e-10
8.4416e-10
8.4416e-10
8.4416e-10
8.4416e-10
8.4416e-10
8.4416e-10
8.4416e-10
8.4416e-10
8.4416e-10
8.4416e-10
8.4416e-10
8.4416e-10
8.4416e-10
8.4416e-10
8.4416e-10
8.4416e-10
8.4416e-10
8.4416e-10
8.4416e-10
8.4416e-10
8.4416e-10
8.4416e-10
8.4416e-10
8.4416e-10
8.4416e-10
8.4416e-10
8.4416e-10
8.4416e-10
8.4416e-10
9.63834e-11
9.80449e-11
9.97351e-11
1.01454e-10
1.03203e-10
1.04982e-10
1.06792e-10
1.08633e-10
1.10506e-10
1.1241e-10
1.14348e-10
1.16319e-10
1.18325e-10
1.20364e-10
1.22439e-10
1.2455e-10
1.26697e-10
1.28881e-10
1.31103e-10
1.33363e-10
1.35662e-10
1.38e-10
1.40379e-10
1.42799e-10
1.45261e-10
1.47765e-10
1.50312e-10
1.52903e-10
1.55539e-10
1.5822e-10
1.60947e-10
1.63722e-10
1.66544e-10
1.69415e-10
1.72336e-10
1.75306e-10
1.78328e-10
1.81402e-10
1.84529e-10
1.8771e-10
1.90946e-10
1.94238e-10
1.97586e-10
2.00992e-10
2.04457e-10
2.07982e-10
2.11567e-10
2.15214e-10
2.18924e-10
2.22698e-10
2.26537e-10
2.30442e-10
2.34414e-10
2.38455e-10
2.42566e-10
2.46747e-10
2.51001e-10
2.55327e-10
2.59729e-10
2.64206e-10
2.68761e-10
2.73394e-10
2.78106e-10
2.82901e-10
2.87777e-10
2.92738e-10
2.97784e-10
3.02918e-10
3.08139e-10
3.13451e-10
3.18855e-10
3.24351e-10
3.29942e-10
3.3563e-10
3.41416e-10
3.47301e-10
3.53288e-10
3.59378e-10
3.65573e-10
3.71875e-10
3.78286e-10
3.84807e-10
3.9144e-10
3.98188e-10
4.05052e-10
4.12034e-10
4.19137e-10
4.26363e-10
4.33712e-10
4.41189e-10
4.48794e-10
4.56531e-10
4.644e-10
4.72406e-10
4.80549e-10
4.88833e-10
4.9726e-10
5.05832e-10
5.14552e-10
5.23422e-10
5.32445e-10
5.41623e-10
5.5096e-10
5.60457e-10
5.70119e-10
5.79947e-10
5.89944e-10
6.00114e-10
6.10458e-10
6.20982e-10
6.31686e-10
6.42576e-10
6.53653e-10
6.64921e-10
6.76383e-10
6.88042e-10
6.99903e-10
7.11968e-10
7.24241e-10
7.36726e-10
7.49426e-10
7.62345e-10
7.75486e-10
7.88855e-10
8.02453e-10
8.16286e-10
8.30357e-10
8.44671e-10
8.59232e-10
8.74044e-10
8.89111e-10
9.04438e-10
9.20029e-10
9.35889e-10
9.52022e-10
9.68433e-10
9.85127e-10
1.00211e-09
1.01938e-09
1.03696e-09
1.05483e-09
1.07302e-09
1.09151e-09
1.11033e-09
1.12947e-09
1.14894e-09
1.16874e-09
1.18889e-09
1.20939e-09
1.23023e-09
1.25144e-09
1.27301e-09
1.29496e-09
1.31728e-09
1.33999e-09
1.36309e-09
1.38659e-09
1.41049e-09
1.4348e-09
1.45954e-09
1.4847e-09
1.51029e-09
1.53632e-09
1.56281e-09
1.58975e-09
1.61715e-09
1.64503e-09
1.67339e-09
1.70223e-09
1.73158e-09
1.76143e-09
1.79179e-09
1.82268e-09
1.8541e-09
1.88606e-09
1.91857e-09
1.95165e-09
1.98529e-09
2.01951e-09
2.05433e-09
2.08974e-09
2.12576e-09
2.16241e-09
2.19968e-09
2.2376e-09
2.27617e-09
2.31541e-09
2.35533e-09
2.39593e-09
2.43723e-09
2.47924e-09
2.52198e-09
2.56546e-09
2.60968e-09
2.65467e-09
2.70043e-09
2.74698e-09
2.79433e-09
2.8425e-09
2.8915e-09
2.68618e-10
2.73248e-10
2.77959e-10
2.8275e-10
2.87624e-10
2.92583e-10
2.97626e-10
3.02757e-10
3.07976e-10
3.13285e-10
3.18685e-10
3.24179e-10
3.29767e-10
3.35452e-10
3.41234e-10
3.47117e-10
3.531e-10
3.59187e-10
3.65379e-10
3.71678e-10
3.78085e-10
3.84602e-10
3.91232e-10
3.97976e-10
4.04837e-10
4.11816e-10
4.18915e-10
4.26136e-10
4.33482e-10
4.40954e-10
4.48556e-10
4.56288e-10
4.64154e-10
4.72155e-10
4.80294e-10
4.88574e-10
4.96996e-10
5.05563e-10
5.14278e-10
5.23144e-10
5.32162e-10
5.41335e-10
5.50667e-10
5.6016e-10
5.69816e-10
5.79638e-10
5.8963e-10
5.99795e-10
6.10134e-10
6.20652e-10
6.31351e-10
6.42234e-10
6.53305e-10
6.64567e-10
6.76023e-10
6.87677e-10
6.99531e-10
7.1159e-10
7.23857e-10
7.36335e-10
7.49028e-10
7.6194e-10
7.75074e-10
7.88435e-10
8.02027e-10
8.15852e-10
8.29916e-10
8.44223e-10
8.58776e-10
8.7358e-10
8.88639e-10
9.03957e-10
9.1954e-10
9.35391e-10
9.51516e-10
9.67918e-10
9.84604e-10
1.00158e-09
1.01884e-09
1.03641e-09
1.05427e-09
1.07245e-09
1.09093e-09
1.10974e-09
1.12887e-09
1.14833e-09
1.16812e-09
1.18826e-09
1.20874e-09
1.22958e-09
1.25078e-09
1.27234e-09
1.29427e-09
1.31658e-09
1.33928e-09
1.36236e-09
1.38585e-09
1.40974e-09
1.43404e-09
1.45876e-09
1.48391e-09
1.50949e-09
1.53551e-09
1.56198e-09
1.5889e-09
1.61629e-09
1.64416e-09
1.6725e-09
1.70133e-09
1.73066e-09
1.76049e-09
1.79084e-09
1.82171e-09
1.85311e-09
1.88506e-09
1.91755e-09
1.95061e-09
1.98423e-09
2.01844e-09
2.05323e-09
2.08863e-09
2.12463e-09
2.16126e-09
2.19851e-09
2.23641e-09
2.27497e-09
2.31418e-09
2.35407e-09
2.39465e-09
2.43593e-09
2.47793e-09
2.52064e-09
2.56409e-09
2.60829e-09
2.65326e-09
2.69899e-09
2.74552e-09
2.79285e-09
2.84099e-09
2.88997e-09
2.93979e-09
2.99046e-09
3.04201e-09
3.09445e-09
3.1478e-09
3.20206e-09
3.25726e-09
3.31341e-09
3.37052e-09
3.42863e-09
3.48773e-09
3.54785e-09
3.60901e-09
3.67122e-09
3.73451e-09
3.79889e-09
3.86437e-09
3.93099e-09
3.99875e-09
4.06768e-09
4.1378e-09
4.20913e-09
4.28169e-09
4.3555e-09
4.43058e-09
4.50696e-09
4.58465e-09
4.66368e-09
4.74408e-09
4.82586e-09
4.90905e-09
4.99367e-09
5.07975e-09
5.16732e-09
5.2564e-09
5.34701e-09
5.43918e-09
5.53294e-09
5.62832e-09
5.72534e-09
5.82404e-09
5.92444e-09
6.02656e-09
6.13045e-09
6.23613e-09
6.34363e-09
6.45299e-09
6.56422e-09
6.67738e-09
6.79249e-09
6.90958e-09
7.02869e-09
7.14985e-09
7.2731e-09
7.39848e-09
7.52602e-09
7.65575e-09
7.78772e-09
7.92197e-09
8.05853e-09
4.12913e-10
4.20031e-10
4.27271e-10
4.34637e-10
4.42129e-10
4.49751e-10
4.57504e-10
4.6539e-10
4.73413e-10
4.81574e-10
4.89875e-10
4.9832e-10
5.0691e-10
5.15648e-10
5.24537e-10
5.33579e-10
5.42778e-10
5.52134e-10
5.61652e-10
5.71334e-10
5.81183e-10
5.91201e-10
6.01393e-10
6.1176e-10
6.22305e-10
6.33033e-10
6.43945e-10
6.55046e-10
6.66338e-10
6.77824e-10
6.89509e-10
7.01395e-10
7.13486e-10
7.25785e-10
7.38296e-10
7.51023e-10
7.6397e-10
7.77139e-10
7.90536e-10
8.04164e-10
8.18026e-10
8.32127e-10
8.46472e-10
8.61064e-10
8.75907e-10
8.91006e-10
9.06366e-10
9.2199e-10
9.37883e-10
9.54051e-10
9.70497e-10
9.87227e-10
1.00425e-09
1.02156e-09
1.03917e-09
1.05708e-09
1.0753e-09
1.09384e-09
1.11269e-09
1.13188e-09
1.15139e-09
1.17124e-09
1.19143e-09
1.21196e-09
1.23286e-09
1.25411e-09
1.27573e-09
1.29772e-09
1.32009e-09
1.34285e-09
1.36599e-09
1.38954e-09
1.41349e-09
1.43786e-09
1.46265e-09
1.48786e-09
1.51351e-09
1.5396e-09
1.56614e-09
1.59314e-09
1.6206e-09
1.64854e-09
1.67695e-09
1.70586e-09
1.73527e-09
1.76518e-09
1.79561e-09
1.82656e-09
1.85805e-09
1.89008e-09
1.92266e-09
1.95581e-09
1.98952e-09
2.02382e-09
2.0587e-09
2.09419e-09
2.13029e-09
2.16702e-09
2.20437e-09
2.24237e-09
2.28103e-09
2.32035e-09
2.36035e-09
2.40103e-09
2.44242e-09
2.48453e-09
2.52736e-09
2.57092e-09
2.61524e-09
2.66033e-09
2.70619e-09
2.75284e-09
2.80029e-09
2.84856e-09
2.89767e-09
2.94762e-09
2.99843e-09
3.05012e-09
3.1027e-09
3.15618e-09
3.21059e-09
3.26593e-09
3.32223e-09
3.3795e-09
3.43776e-09
3.49702e-09
3.5573e-09
3.61863e-09
3.68101e-09
3.74446e-09
3.80901e-09
3.87467e-09
3.94146e-09
4.00941e-09
4.07852e-09
4.14883e-09
4.22035e-09
4.2931e-09
4.36711e-09
4.44239e-09
4.51897e-09
4.59687e-09
4.67611e-09
4.75672e-09
4.83871e-09
4.92213e-09
5.00698e-09
5.09329e-09
5.18109e-09
5.2704e-09
5.36125e-09
5.45367e-09
5.54768e-09
5.64332e-09
5.7406e-09
5.83956e-09
5.94022e-09
6.04262e-09
6.14679e-09
6.25275e-09
6.36053e-09
6.47018e-09
6.58171e-09
6.69517e-09
6.81058e-09
6.92799e-09
7.04741e-09
7.1689e-09
7.29248e-09
7.41819e-09
7.54607e-09
7.67615e-09
7.80847e-09
7.94308e-09
8.08e-09
8.21929e-09
8.36098e-09
8.50511e-09
8.65172e-09
8.80086e-09
8.95257e-09
9.1069e-09
9.26389e-09
9.42358e-09
9.58603e-09
9.75128e-09
9.91937e-09
1.00904e-08
1.02643e-08
1.04412e-08
1.06212e-08
1.08043e-08
1.09906e-08
1.118e-08
1.13728e-08
1.15688e-08
1.17682e-08
1.19711e-08
1.21775e-08
1.23874e-08
5.32735e-10
5.41919e-10
5.5126e-10
5.60763e-10
5.7043e-10
5.80263e-10
5.90266e-10
6.00441e-10
6.10792e-10
6.21321e-10
6.32031e-10
6.42926e-10
6.54009e-10
6.65283e-10
6.76752e-10
6.88418e-10
7.00285e-10
7.12357e-10
7.24637e-10
7.37128e-10
7.49835e-10
7.62761e-10
7.7591e-10
7.89285e-10
8.02891e-10
8.16732e-10
8.30811e-10
8.45132e-10
8.59701e-10
8.74521e-10
8.89596e-10
9.04931e-10
9.20531e-10
9.36399e-10
9.52541e-10
9.68961e-10
9.85665e-10
1.00266e-09
1.01994e-09
1.03752e-09
1.05541e-09
1.0736e-09
1.09211e-09
1.11093e-09
1.13008e-09
1.14957e-09
1.16938e-09
1.18954e-09
1.21005e-09
1.23091e-09
1.25212e-09
1.27371e-09
1.29567e-09
1.318e-09
1.34072e-09
1.36383e-09
1.38734e-09
1.41126e-09
1.43559e-09
1.46033e-09
1.48551e-09
1.51111e-09
1.53716e-09
1.56366e-09
1.59062e-09
1.61804e-09
1.64593e-09
1.6743e-09
1.70316e-09
1.73252e-09
1.76239e-09
1.79277e-09
1.82367e-09
1.85511e-09
1.88709e-09
1.91962e-09
1.95271e-09
1.98637e-09
2.02061e-09
2.05545e-09
2.09088e-09
2.12692e-09
2.16359e-09
2.20088e-09
2.23882e-09
2.27742e-09
2.31668e-09
2.35661e-09
2.39724e-09
2.43856e-09
2.4806e-09
2.52336e-09
2.56686e-09
2.6111e-09
2.65612e-09
2.7019e-09
2.74848e-09
2.79586e-09
2.84405e-09
2.89308e-09
2.94295e-09
2.99368e-09
3.04529e-09
3.09779e-09
3.15119e-09
3.20551e-09
3.26077e-09
3.31698e-09
3.37416e-09
3.43232e-09
3.49149e-09
3.55168e-09
3.6129e-09
3.67518e-09
3.73853e-09
3.80298e-09
3.86854e-09
3.93522e-09
4.00306e-09
4.07207e-09
4.14226e-09
4.21367e-09
4.28631e-09
4.36019e-09
4.43536e-09
4.51182e-09
4.58959e-09
4.66871e-09
4.74919e-09
4.83106e-09
4.91434e-09
4.99905e-09
5.08523e-09
5.17289e-09
5.26206e-09
5.35277e-09
5.44504e-09
5.53891e-09
5.63439e-09
5.73151e-09
5.83032e-09
5.93082e-09
6.03306e-09
6.13706e-09
6.24285e-09
6.35047e-09
6.45994e-09
6.5713e-09
6.68458e-09
6.79981e-09
6.91702e-09
7.03626e-09
7.15756e-09
7.28094e-09
7.40645e-09
7.53413e-09
7.664e-09
7.79612e-09
7.93051e-09
8.06722e-09
8.20628e-09
8.34775e-09
8.49165e-09
8.63803e-09
8.78693e-09
8.93841e-09
9.09249e-09
9.24923e-09
9.40867e-09
9.57086e-09
9.73585e-09
9.90368e-09
1.00744e-08
1.02481e-08
1.04247e-08
1.06044e-08
1.07872e-08
1.09732e-08
1.11623e-08
1.13548e-08
1.15505e-08
1.17496e-08
1.19522e-08
1.21582e-08
1.23678e-08
1.2581e-08
1.27979e-08
1.30185e-08
1.32429e-08
1.34712e-08
1.37034e-08
1.39396e-08
1.41799e-08
1.44243e-08
1.4673e-08
1.49259e-08
1.51832e-08
1.5445e-08
1.57112e-08
1.59821e-08
6.31159e-10
6.42039e-10
6.53106e-10
6.64365e-10
6.75817e-10
6.87467e-10
6.99318e-10
7.11373e-10
7.23636e-10
7.3611e-10
7.488e-10
7.61708e-10
7.74838e-10
7.88195e-10
8.01783e-10
8.15604e-10
8.29664e-10
8.43966e-10
8.58514e-10
8.73314e-10
8.88368e-10
9.03682e-10
9.1926e-10
9.35106e-10
9.51226e-10
9.67624e-10
9.84304e-10
1.00127e-09
1.01853e-09
1.03609e-09
1.05395e-09
1.07212e-09
1.0906e-09
1.1094e-09
1.12852e-09
1.14798e-09
1.16777e-09
1.1879e-09
1.20838e-09
1.22921e-09
1.2504e-09
1.27195e-09
1.29388e-09
1.31618e-09
1.33887e-09
1.36195e-09
1.38543e-09
1.40931e-09
1.4336e-09
1.45832e-09
1.48346e-09
1.50903e-09
1.53504e-09
1.5615e-09
1.58842e-09
1.6158e-09
1.64366e-09
1.67199e-09
1.70081e-09
1.73013e-09
1.75996e-09
1.79029e-09
1.82116e-09
1.85255e-09
1.88448e-09
1.91697e-09
1.95002e-09
1.98363e-09
2.01782e-09
2.05261e-09
2.08799e-09
2.12399e-09
2.1606e-09
2.19784e-09
2.23573e-09
2.27427e-09
2.31348e-09
2.35336e-09
2.39393e-09
2.43519e-09
2.47717e-09
2.51987e-09
2.56331e-09
2.6075e-09
2.65245e-09
2.69817e-09
2.74468e-09
2.792e-09
2.84013e-09
2.88909e-09
2.93889e-09
2.98955e-09
3.04109e-09
3.09351e-09
3.14684e-09
3.20108e-09
3.25626e-09
3.3124e-09
3.3695e-09
3.42758e-09
3.48667e-09
3.54677e-09
3.60791e-09
3.67011e-09
3.73337e-09
3.79773e-09
3.8632e-09
3.92979e-09
3.99753e-09
4.06645e-09
4.13654e-09
4.20785e-09
4.28039e-09
4.35417e-09
4.42923e-09
4.50559e-09
4.58325e-09
4.66226e-09
4.74263e-09
4.82439e-09
4.90755e-09
4.99215e-09
5.07821e-09
5.16575e-09
5.25479e-09
5.34538e-09
5.43752e-09
5.53126e-09
5.62661e-09
5.7236e-09
5.82227e-09
5.92263e-09
6.02473e-09
6.12859e-09
6.23423e-09
6.3417e-09
6.45102e-09
6.56223e-09
6.67535e-09
6.79042e-09
6.90747e-09
7.02655e-09
7.14767e-09
7.27089e-09
7.39623e-09
7.52372e-09
7.65342e-09
7.78535e-09
7.91956e-09
8.05608e-09
8.19495e-09
8.33622e-09
8.47992e-09
8.6261e-09
8.7748e-09
8.92607e-09
9.07994e-09