/*--------------------------------*- C++ -*----------------------------------*\
| =========                 |                                                 |
| \\      /  F ield         | OpenFOAM: The Open Source CFD Toolbox           |
|  \\    /   O peration     | Version:  4.x                                   |
|   \\  /    A nd           | Web:      www.OpenFOAM.org                      |
|    \\/     M anipulation  |                                                 |
\*---------------------------------------------------------------------------*/
FoamFile
{
    version     2.0;
    format      ascii;
    class       volVectorField;
    object      U;
}
// * * * * * * * * * * * * * * * * * * * * * * * * * * * * * * * * * * * * * //

dimensions      [0 1 -1 0 0 0 0];

internalField   uniform (0 0 0);

boundaryField
{


    inlet
    {
	type fixedValue;
	value nonuniform List<vector>
	#counter
	(
	#vectors
	);    

    }

    fuelInjector
    {
	type fixedValue;
	value nonuniform List<vector>
	#counter_fuelInjector
	(
	#vectors_fuelInjector
	);    

    }

    secondaryInlet
    {
	  type    fixedValue;
	  value uniform (0.1 0 0);
    }

    outlet
    {
        type            zeroGradient;
    }
    top
    {
        type fixedValue;
        value uniform (0 0 0);
    }
    frontWall
    {
        type fixedValue;
        value uniform (0 0 0);
    }
    axis
    {
        type            empty;
    }
    front
    {
        type            wedge;
    }

    back
    {
        type            wedge;
    }





}

// ************************************************************************* //
