/*--------------------------------*- C++ -*----------------------------------*\
| =========                 |                                                 |
| \\      /  F ield         | OpenFOAM: The Open Source CFD Toolbox           |
|  \\    /   O peration     | Version:  4.x                                   |
|   \\  /    A nd           | Web:      www.OpenFOAM.org                      |
|    \\/     M anipulation  |                                                 |
\*---------------------------------------------------------------------------*/
FoamFile
{
    version     2.0;
    format      ascii;
    class       volScalarField;
    location    "0";
    object      V;
}
// * * * * * * * * * * * * * * * * * * * * * * * * * * * * * * * * * * * * * //

dimensions      [0 3 0 0 0 0 0];

internalField   nonuniform List<scalar> 
11990
(
7.64687e-10
7.61914e-10
7.59151e-10
7.56398e-10
7.53655e-10
7.50922e-10
7.48199e-10
7.45485e-10
7.42782e-10
7.40088e-10
7.37404e-10
7.3473e-10
7.32065e-10
7.2941e-10
7.26765e-10
7.2413e-10
7.21503e-10
7.18887e-10
7.1628e-10
7.13682e-10
7.11094e-10
7.08515e-10
7.05946e-10
7.03386e-10
7.00835e-10
6.98293e-10
6.95761e-10
6.93238e-10
6.90724e-10
6.88219e-10
2.00835e-09
2.00107e-09
1.99381e-09
1.98658e-09
1.97938e-09
1.9722e-09
1.96505e-09
1.95792e-09
1.95082e-09
1.94375e-09
1.9367e-09
1.92967e-09
1.92268e-09
1.9157e-09
1.90876e-09
1.90183e-09
1.89494e-09
1.88807e-09
1.88122e-09
1.8744e-09
1.8676e-09
1.86083e-09
1.85408e-09
1.84735e-09
1.84065e-09
1.83398e-09
1.82733e-09
1.8207e-09
1.8141e-09
1.80752e-09
2.89303e-09
2.88254e-09
2.87209e-09
2.86167e-09
2.85129e-09
2.84095e-09
2.83065e-09
2.82039e-09
2.81016e-09
2.79997e-09
2.78981e-09
2.77969e-09
2.76961e-09
2.75957e-09
2.74956e-09
2.73959e-09
2.72966e-09
2.71976e-09
2.70989e-09
2.70007e-09
2.69027e-09
2.68052e-09
2.6708e-09
2.66111e-09
2.65146e-09
2.64184e-09
2.63226e-09
2.62272e-09
2.61321e-09
2.60373e-09
3.49681e-09
3.48413e-09
3.47149e-09
3.4589e-09
3.44636e-09
3.43386e-09
3.42141e-09
3.409e-09
3.39664e-09
3.38432e-09
3.37204e-09
3.35982e-09
3.34763e-09
3.33549e-09
3.32339e-09
3.31134e-09
3.29933e-09
3.28737e-09
3.27545e-09
3.26357e-09
3.25173e-09
3.23994e-09
3.22819e-09
3.21648e-09
3.20482e-09
3.1932e-09
3.18162e-09
3.17008e-09
3.15858e-09
3.14713e-09
3.88232e-09
3.86824e-09
3.85422e-09
3.84024e-09
3.82631e-09
3.81243e-09
3.79861e-09
3.78483e-09
3.77111e-09
3.75743e-09
3.74381e-09
3.73023e-09
3.7167e-09
3.70322e-09
3.68979e-09
3.67641e-09
3.66308e-09
3.64979e-09
3.63656e-09
3.62337e-09
3.61023e-09
3.59714e-09
3.58409e-09
3.57109e-09
3.55814e-09
3.54524e-09
3.53238e-09
3.51957e-09
3.50681e-09
3.49409e-09
4.09971e-09
4.08484e-09
4.07003e-09
4.05527e-09
4.04056e-09
4.02591e-09
4.01131e-09
3.99676e-09
3.98227e-09
3.96783e-09
3.95344e-09
3.9391e-09
3.92481e-09
3.91058e-09
3.8964e-09
3.88227e-09
3.86819e-09
3.85416e-09
3.84018e-09
3.82626e-09
3.81238e-09
3.79856e-09
3.78478e-09
3.77105e-09
3.75738e-09
3.74375e-09
3.73018e-09
3.71665e-09
3.70317e-09
3.68974e-09
4.18897e-09
4.17378e-09
4.15865e-09
4.14357e-09
4.12854e-09
4.11357e-09
4.09865e-09
4.08378e-09
4.06897e-09
4.05422e-09
4.03952e-09
4.02487e-09
4.01027e-09
3.99573e-09
3.98124e-09
3.9668e-09
3.95241e-09
3.93808e-09
3.9238e-09
3.90957e-09
3.89539e-09
3.88126e-09
3.86719e-09
3.85316e-09
3.83919e-09
3.82527e-09
3.81139e-09
3.79757e-09
3.7838e-09
3.77008e-09
4.18193e-09
4.16677e-09
4.15166e-09
4.1366e-09
4.1216e-09
4.10665e-09
4.09176e-09
4.07692e-09
4.06214e-09
4.0474e-09
4.03273e-09
4.0181e-09
4.00353e-09
3.98901e-09
3.97454e-09
3.96013e-09
3.94577e-09
3.93146e-09
3.9172e-09
3.903e-09
3.88884e-09
3.87474e-09
3.86069e-09
3.84669e-09
3.83274e-09
3.81884e-09
3.80499e-09
3.79119e-09
3.77744e-09
3.76374e-09
4.1038e-09
4.08892e-09
4.07409e-09
4.05931e-09
4.04459e-09
4.02992e-09
4.01531e-09
4.00075e-09
3.98624e-09
3.97178e-09
3.95738e-09
3.94303e-09
3.92873e-09
3.91448e-09
3.90028e-09
3.88614e-09
3.87205e-09
3.858e-09
3.84401e-09
3.83007e-09
3.81618e-09
3.80234e-09
3.78855e-09
3.77481e-09
3.76113e-09
3.74749e-09
3.73389e-09
3.72035e-09
3.70686e-09
3.69342e-09
3.97445e-09
3.96004e-09
3.94568e-09
3.93137e-09
3.91711e-09
3.9029e-09
3.88875e-09
3.87465e-09
3.8606e-09
3.84659e-09
3.83264e-09
3.81875e-09
3.8049e-09
3.7911e-09
3.77735e-09
3.76365e-09
3.75e-09
3.7364e-09
3.72285e-09
3.70935e-09
3.6959e-09
3.6825e-09
3.66914e-09
3.65584e-09
3.64258e-09
3.62937e-09
3.61621e-09
3.60309e-09
3.59002e-09
3.577e-09
3.80948e-09
3.79567e-09
3.7819e-09
3.76819e-09
3.75452e-09
3.74091e-09
3.72734e-09
3.71382e-09
3.70036e-09
3.68694e-09
3.67357e-09
3.66024e-09
3.64697e-09
3.63374e-09
3.62057e-09
3.60744e-09
3.59435e-09
3.58132e-09
3.56833e-09
3.55539e-09
3.5425e-09
3.52965e-09
3.51685e-09
3.50409e-09
3.49139e-09
3.47872e-09
3.46611e-09
3.45354e-09
3.44101e-09
3.42854e-09
3.62106e-09
3.60792e-09
3.59484e-09
3.5818e-09
3.56881e-09
3.55587e-09
3.54298e-09
3.53013e-09
3.51733e-09
3.50457e-09
3.49186e-09
3.4792e-09
3.46658e-09
3.45401e-09
3.44148e-09
3.429e-09
3.41657e-09
3.40418e-09
3.39183e-09
3.37953e-09
3.36727e-09
3.35506e-09
3.3429e-09
3.33077e-09
3.31869e-09
3.30666e-09
3.29467e-09
3.28272e-09
3.27081e-09
3.25895e-09
3.41856e-09
3.40617e-09
3.39381e-09
3.38151e-09
3.36924e-09
3.35703e-09
3.34485e-09
3.33272e-09
3.32063e-09
3.30859e-09
3.29659e-09
3.28464e-09
3.27273e-09
3.26086e-09
3.24903e-09
3.23725e-09
3.22551e-09
3.21381e-09
3.20216e-09
3.19054e-09
3.17897e-09
3.16744e-09
3.15596e-09
3.14451e-09
3.13311e-09
3.12175e-09
3.11043e-09
3.09915e-09
3.08791e-09
3.07671e-09
3.2092e-09
3.19757e-09
3.18597e-09
3.17442e-09
3.1629e-09
3.15143e-09
3.14e-09
3.12862e-09
3.11727e-09
3.10597e-09
3.0947e-09
3.08348e-09
3.0723e-09
3.06115e-09
3.05005e-09
3.03899e-09
3.02797e-09
3.01699e-09
3.00605e-09
2.99515e-09
2.98429e-09
2.97346e-09
2.96268e-09
2.95194e-09
2.94123e-09
2.93056e-09
2.91994e-09
2.90935e-09
2.8988e-09
2.88828e-09
2.99841e-09
2.98754e-09
2.9767e-09
2.96591e-09
2.95515e-09
2.94444e-09
2.93376e-09
2.92312e-09
2.91252e-09
2.90196e-09
2.89143e-09
2.88095e-09
2.8705e-09
2.86009e-09
2.84972e-09
2.83938e-09
2.82908e-09
2.81882e-09
2.8086e-09
2.79842e-09
2.78827e-09
2.77816e-09
2.76808e-09
2.75804e-09
2.74804e-09
2.73808e-09
2.72815e-09
2.71825e-09
2.70839e-09
2.69857e-09
2.79024e-09
2.78012e-09
2.77004e-09
2.76e-09
2.74999e-09
2.74001e-09
2.73008e-09
2.72018e-09
2.71031e-09
2.70048e-09
2.69069e-09
2.68093e-09
2.67121e-09
2.66152e-09
2.65187e-09
2.64225e-09
2.63267e-09
2.62312e-09
2.61361e-09
2.60413e-09
2.59469e-09
2.58528e-09
2.5759e-09
2.56656e-09
2.55725e-09
2.54798e-09
2.53874e-09
2.52953e-09
2.52036e-09
2.51122e-09
2.58764e-09
2.57825e-09
2.5689e-09
2.55959e-09
2.55031e-09
2.54106e-09
2.53184e-09
2.52266e-09
2.51351e-09
2.5044e-09
2.49531e-09
2.48626e-09
2.47725e-09
2.46826e-09
2.45931e-09
2.45039e-09
2.44151e-09
2.43265e-09
2.42383e-09
2.41504e-09
2.40628e-09
2.39756e-09
2.38886e-09
2.3802e-09
2.37157e-09
2.36297e-09
2.3544e-09
2.34586e-09
2.33735e-09
2.32887e-09
3.77087e-10
3.86857e-10
3.96879e-10
4.07162e-10
4.1771e-10
4.28532e-10
4.39635e-10
4.51025e-10
4.6271e-10
4.74698e-10
4.86996e-10
4.99613e-10
5.12557e-10
5.25837e-10
5.3946e-10
5.53436e-10
5.67775e-10
5.82485e-10
5.97576e-10
6.13057e-10
6.28941e-10
6.45235e-10
6.61952e-10
6.79102e-10
6.96696e-10
7.14746e-10
7.33263e-10
7.52261e-10
7.7175e-10
7.91745e-10
8.12257e-10
8.33301e-10
8.5489e-10
8.77039e-10
8.99761e-10
9.23072e-10
9.46987e-10
9.71522e-10
9.96692e-10
1.02251e-09
1.04901e-09
1.07618e-09
1.10406e-09
1.13267e-09
1.16201e-09
1.19212e-09
1.223e-09
1.25469e-09
1.2872e-09
1.32055e-09
1.35476e-09
1.38986e-09
1.42587e-09
1.46281e-09
1.5007e-09
1.53959e-09
1.57947e-09
1.62039e-09
1.66237e-09
1.70544e-09
1.74963e-09
1.79496e-09
1.84146e-09
1.88917e-09
1.93811e-09
1.98833e-09
2.03984e-09
2.09269e-09
2.14691e-09
2.20253e-09
2.25959e-09
2.31813e-09
2.37819e-09
2.4398e-09
2.50301e-09
2.56786e-09
2.63439e-09
2.70264e-09
2.77266e-09
2.8445e-09
2.91819e-09
2.9938e-09
3.07136e-09
3.15093e-09
3.23257e-09
3.31632e-09
3.40223e-09
3.49038e-09
3.58081e-09
3.67358e-09
3.76875e-09
3.86639e-09
3.96657e-09
4.06933e-09
4.17476e-09
4.28292e-09
4.39388e-09
4.50772e-09
4.6245e-09
4.74431e-09
4.86723e-09
4.99333e-09
5.1227e-09
5.25542e-09
5.39157e-09
5.53126e-09
5.67456e-09
5.82158e-09
5.9724e-09
6.12714e-09
6.28588e-09
6.44873e-09
6.6158e-09
6.78721e-09
6.96305e-09
7.14345e-09
7.32852e-09
7.51839e-09
7.71317e-09
7.91301e-09
8.11802e-09
8.32834e-09
8.54411e-09
8.76547e-09
8.99256e-09
9.22554e-09
9.46456e-09
9.70977e-09
9.96133e-09
1.02194e-08
1.04842e-08
1.07558e-08
1.10345e-08
1.13203e-08
1.16136e-08
1.19145e-08
1.22232e-08
1.25399e-08
1.28647e-08
1.3198e-08
9.90371e-10
1.01603e-09
1.04235e-09
1.06936e-09
1.09706e-09
1.12549e-09
1.15464e-09
1.18456e-09
1.21525e-09
1.24673e-09
1.27903e-09
1.31217e-09
1.34617e-09
1.38104e-09
1.41682e-09
1.45353e-09
1.49119e-09
1.52982e-09
1.56946e-09
1.61012e-09
1.65183e-09
1.69463e-09
1.73853e-09
1.78357e-09
1.82978e-09
1.87719e-09
1.92582e-09
1.97572e-09
2.0269e-09
2.07942e-09
2.13329e-09
2.18856e-09
2.24526e-09
2.30343e-09
2.36311e-09
2.42433e-09
2.48714e-09
2.55158e-09
2.61768e-09
2.6855e-09
2.75508e-09
2.82646e-09
2.89969e-09
2.97481e-09
3.05188e-09
3.13095e-09
3.21207e-09
3.29528e-09
3.38066e-09
3.46824e-09
3.5581e-09
3.65028e-09
3.74485e-09
3.84188e-09
3.94141e-09
4.04352e-09
4.14828e-09
4.25576e-09
4.36602e-09
4.47913e-09
4.59518e-09
4.71423e-09
4.83636e-09
4.96166e-09
5.09021e-09
5.22209e-09
5.35738e-09
5.49618e-09
5.63858e-09
5.78466e-09
5.93453e-09
6.08828e-09
6.24601e-09
6.40784e-09
6.57385e-09
6.74417e-09
6.91889e-09
7.09815e-09
7.28205e-09
7.47071e-09
7.66426e-09
7.86283e-09
8.06653e-09
8.27552e-09
8.48992e-09
8.70988e-09
8.93554e-09
9.16704e-09
9.40454e-09
9.64819e-09
9.89815e-09
1.01546e-08
1.04177e-08
1.06876e-08
1.09645e-08
1.12485e-08
1.154e-08
1.18389e-08
1.21457e-08
1.24603e-08
1.27832e-08
1.31143e-08
1.34541e-08
1.38027e-08
1.41603e-08
1.45271e-08
1.49035e-08
1.52896e-08
1.56858e-08
1.60921e-08
1.65091e-08
1.69368e-08
1.73756e-08
1.78257e-08
1.82876e-08
1.87614e-08
1.92474e-08
1.97461e-08
2.02577e-08
2.07825e-08
2.13209e-08
2.18733e-08
2.244e-08
2.30214e-08
2.36178e-08
2.42297e-08
2.48575e-08
2.55015e-08
2.61622e-08
2.684e-08
2.75353e-08
2.82487e-08
2.89806e-08
2.97314e-08
3.05017e-08
3.12919e-08
3.21026e-08
3.29344e-08
3.37876e-08
3.4663e-08
1.42663e-09
1.46359e-09
1.50151e-09
1.54041e-09
1.58032e-09
1.62126e-09
1.66326e-09
1.70636e-09
1.75056e-09
1.79592e-09
1.84245e-09
1.89018e-09
1.93915e-09
1.98939e-09
2.04093e-09
2.09381e-09
2.14805e-09
2.20371e-09
2.2608e-09
2.31937e-09
2.37946e-09
2.44111e-09
2.50435e-09
2.56924e-09
2.6358e-09
2.70409e-09
2.77415e-09
2.84602e-09
2.91975e-09
2.9954e-09
3.073e-09
3.15262e-09
3.2343e-09
3.31809e-09
3.40406e-09
3.49225e-09
3.58272e-09
3.67555e-09
3.77077e-09
3.86846e-09
3.96869e-09
4.07151e-09
4.17699e-09
4.28521e-09
4.39623e-09
4.51013e-09
4.62698e-09
4.74685e-09
4.86984e-09
4.996e-09
5.12544e-09
5.25823e-09
5.39446e-09
5.53422e-09
5.6776e-09
5.82469e-09
5.9756e-09
6.13042e-09
6.28924e-09
6.45218e-09
6.61935e-09
6.79084e-09
6.96678e-09
7.14727e-09
7.33244e-09
7.52241e-09
7.7173e-09
7.91724e-09
8.12236e-09
8.3328e-09
8.54868e-09
8.77016e-09
8.99738e-09
9.23048e-09
9.46962e-09
9.71496e-09
9.96666e-09
1.02249e-08
1.04898e-08
1.07615e-08
1.10404e-08
1.13264e-08
1.16198e-08
1.19209e-08
1.22297e-08
1.25466e-08
1.28716e-08
1.32051e-08
1.35472e-08
1.38982e-08
1.42583e-08
1.46277e-08
1.50067e-08
1.53955e-08
1.57943e-08
1.62035e-08
1.66233e-08
1.7054e-08
1.74958e-08
1.79491e-08
1.84141e-08
1.88912e-08
1.93806e-08
1.98828e-08
2.03979e-08
2.09263e-08
2.14685e-08
2.20247e-08
2.25953e-08
2.31807e-08
2.37813e-08
2.43974e-08
2.50295e-08
2.5678e-08
2.63432e-08
2.70257e-08
2.77259e-08
2.84442e-08
2.91812e-08
2.99372e-08
3.07128e-08
3.15085e-08
3.23248e-08
3.31623e-08
3.40215e-08
3.49029e-08
3.58071e-08
3.67348e-08
3.76866e-08
3.86629e-08
3.96646e-08
4.06923e-08
4.17465e-08
4.28281e-08
4.39377e-08
4.5076e-08
4.62438e-08
4.74419e-08
4.8671e-08
4.9932e-08
1.72437e-09
1.76904e-09
1.81487e-09
1.86189e-09
1.91013e-09
1.95962e-09
2.01039e-09
2.06247e-09
2.11591e-09
2.17073e-09
2.22696e-09
2.28466e-09
2.34385e-09
2.40458e-09
2.46687e-09
2.53079e-09
2.59635e-09
2.66362e-09
2.73263e-09
2.80343e-09
2.87606e-09
2.95057e-09
3.02701e-09
3.10544e-09
3.18589e-09
3.26843e-09
3.35311e-09
3.43998e-09
3.52911e-09
3.62054e-09
3.71434e-09
3.81057e-09
3.90929e-09
4.01058e-09
4.11448e-09
4.22108e-09
4.33044e-09
4.44263e-09
4.55773e-09
4.67581e-09
4.79695e-09
4.92123e-09
5.04873e-09
5.17953e-09
5.31373e-09
5.45139e-09
5.59263e-09
5.73752e-09
5.88617e-09
6.03867e-09
6.19512e-09
6.35562e-09
6.52028e-09
6.68921e-09
6.86251e-09
7.04031e-09
7.22271e-09
7.40983e-09
7.60181e-09
7.79875e-09
8.0008e-09
8.20809e-09
8.42074e-09
8.63891e-09
8.86272e-09
9.09234e-09
9.3279e-09
9.56957e-09
9.8175e-09
1.00718e-08
1.03328e-08
1.06005e-08
1.08751e-08
1.11569e-08
1.14459e-08
1.17425e-08
1.20467e-08
1.23588e-08
1.2679e-08
1.30075e-08
1.33445e-08
1.36902e-08
1.40449e-08
1.44088e-08
1.47821e-08
1.5165e-08
1.55579e-08
1.5961e-08
1.63745e-08
1.67988e-08
1.7234e-08
1.76805e-08
1.81385e-08
1.86085e-08
1.90906e-08
1.95852e-08
2.00926e-08
2.06132e-08
2.11472e-08
2.16951e-08
2.22572e-08
2.28338e-08
2.34254e-08
2.40323e-08
2.46549e-08
2.52937e-08
2.5949e-08
2.66213e-08
2.7311e-08
2.80185e-08
2.87444e-08
2.94891e-08
3.02531e-08
3.10369e-08
3.1841e-08
3.2666e-08
3.35123e-08
3.43805e-08
3.52713e-08
3.61851e-08
3.71225e-08
3.80843e-08
3.9071e-08
4.00833e-08
4.11217e-08
4.21871e-08
4.32801e-08
4.44014e-08
4.55517e-08
4.67319e-08
4.79426e-08
4.91847e-08
5.0459e-08
5.17663e-08
5.31074e-08
5.44833e-08
5.58949e-08
5.7343e-08
5.88287e-08
6.03528e-08
1.91447e-09
1.96407e-09
2.01496e-09
2.06716e-09
2.12072e-09
2.17566e-09
2.23203e-09
2.28986e-09
2.34918e-09
2.41004e-09
2.47248e-09
2.53654e-09
2.60226e-09
2.66968e-09
2.73884e-09
2.8098e-09
2.8826e-09
2.95728e-09
3.03389e-09
3.1125e-09
3.19314e-09
3.27586e-09
3.36073e-09
3.4478e-09
3.53713e-09
3.62877e-09
3.72278e-09
3.81923e-09
3.91818e-09
4.01969e-09
4.12384e-09
4.23068e-09
4.34028e-09
4.45273e-09
4.56809e-09
4.68644e-09
4.80786e-09
4.93242e-09
5.06021e-09
5.19131e-09
5.32581e-09
5.46379e-09
5.60534e-09
5.75057e-09
5.89955e-09
6.0524e-09
6.2092e-09
6.37007e-09
6.53511e-09
6.70442e-09
6.87811e-09
7.05631e-09
7.23913e-09
7.42668e-09
7.61909e-09
7.81648e-09
8.01899e-09
8.22675e-09
8.43989e-09
8.65855e-09
8.88287e-09
9.11301e-09
9.34911e-09
9.59133e-09
9.83982e-09
1.00947e-08
1.03563e-08
1.06246e-08
1.08999e-08
1.11822e-08
1.1472e-08
1.17692e-08
1.20741e-08
1.23869e-08
1.27078e-08
1.30371e-08
1.33748e-08
1.37213e-08
1.40768e-08
1.44415e-08
1.48157e-08
1.51995e-08
1.55933e-08
1.59973e-08
1.64118e-08
1.6837e-08
1.72732e-08
1.77207e-08
1.81798e-08
1.86508e-08
1.9134e-08
1.96297e-08
2.01383e-08
2.066e-08
2.11953e-08
2.17444e-08
2.23078e-08
2.28857e-08
2.34786e-08
2.40869e-08
2.4711e-08
2.53512e-08
2.6008e-08
2.66818e-08
2.73731e-08
2.80822e-08
2.88098e-08
2.95562e-08
3.03219e-08
3.11075e-08
3.19134e-08
3.27403e-08
3.35885e-08
3.44587e-08
3.53515e-08
3.62673e-08
3.72069e-08
3.81709e-08
3.91598e-08
4.01744e-08
4.12152e-08
4.2283e-08
4.33785e-08
4.45023e-08
4.56553e-08
4.68381e-08
4.80516e-08
4.92965e-08
5.05737e-08
5.1884e-08
5.32282e-08
5.46072e-08
5.6022e-08
5.74734e-08
5.89624e-08
6.049e-08
6.20572e-08
6.3665e-08
6.53144e-08
6.70066e-08
2.02167e-09
2.07405e-09
2.12778e-09
2.18291e-09
2.23947e-09
2.29749e-09
2.35701e-09
2.41807e-09
2.48072e-09
2.54499e-09
2.61093e-09
2.67857e-09
2.74797e-09
2.81916e-09
2.8922e-09
2.96713e-09
3.044e-09
3.12287e-09
3.20378e-09
3.28678e-09
3.37193e-09
3.45929e-09
3.54892e-09
3.64086e-09
3.73519e-09
3.83196e-09
3.93124e-09
4.03309e-09
4.13758e-09
4.24477e-09
4.35475e-09
4.46757e-09
4.58331e-09
4.70206e-09
4.82388e-09
4.94886e-09
5.07707e-09
5.20861e-09
5.34355e-09
5.48199e-09
5.62402e-09
5.76973e-09
5.91921e-09
6.07256e-09
6.22989e-09
6.3913e-09
6.55688e-09
6.72676e-09
6.90103e-09
7.07983e-09
7.26325e-09
7.45143e-09
7.64448e-09
7.84253e-09
8.04571e-09
8.25416e-09
8.46801e-09
8.6874e-09
8.91247e-09
9.14338e-09
9.38026e-09
9.62329e-09
9.87261e-09
1.01284e-08
1.03908e-08
1.066e-08
1.09362e-08
1.12195e-08
1.15102e-08
1.18084e-08
1.21143e-08
1.24282e-08
1.27502e-08
1.30805e-08
1.34194e-08
1.37671e-08
1.41237e-08
1.44896e-08
1.4865e-08
1.52502e-08
1.56453e-08
1.60506e-08
1.64664e-08
1.68931e-08
1.73307e-08
1.77797e-08
1.82404e-08
1.87129e-08
1.91977e-08
1.96951e-08
2.02054e-08
2.07289e-08
2.12659e-08
2.18169e-08
2.23821e-08
2.2962e-08
2.35569e-08
2.41672e-08
2.47933e-08
2.54356e-08
2.60946e-08
2.67707e-08
2.74643e-08
2.81758e-08
2.89058e-08
2.96547e-08
3.0423e-08
3.12112e-08
3.20198e-08
3.28493e-08
3.37004e-08
3.45735e-08
3.54692e-08
3.63882e-08
3.73309e-08
3.82981e-08
3.92903e-08
4.03083e-08
4.13526e-08
4.24239e-08
4.3523e-08
4.46506e-08
4.58074e-08
4.69942e-08
4.82117e-08
4.94608e-08
5.07422e-08
5.20569e-08
5.34055e-08
5.47892e-08
5.62087e-08
5.76649e-08
5.91589e-08
6.06916e-08
6.2264e-08
6.38771e-08
6.5532e-08
6.72298e-08
6.89716e-08
7.07585e-08
2.06569e-09
2.11921e-09
2.17411e-09
2.23044e-09
2.28823e-09
2.34751e-09
2.40833e-09
2.47072e-09
2.53474e-09
2.6004e-09
2.66778e-09
2.73689e-09
2.8078e-09
2.88054e-09
2.95517e-09
3.03174e-09
3.11028e-09
3.19086e-09
3.27353e-09
3.35834e-09
3.44535e-09
3.53461e-09
3.62619e-09
3.72013e-09
3.81652e-09
3.91539e-09
4.01683e-09
4.1209e-09
4.22767e-09
4.3372e-09
4.44956e-09
4.56484e-09
4.68311e-09
4.80444e-09
4.92891e-09
5.05661e-09
5.18762e-09
5.32202e-09
5.4599e-09
5.60135e-09
5.74647e-09
5.89535e-09
6.04809e-09
6.20478e-09
6.36554e-09
6.53046e-09
6.69965e-09
6.87322e-09
7.05129e-09
7.23398e-09
7.42139e-09
7.61367e-09
7.81092e-09
8.01329e-09
8.2209e-09
8.43388e-09
8.65239e-09
8.87655e-09
9.10653e-09
9.34246e-09
9.5845e-09
9.83282e-09
1.00876e-08
1.03489e-08
1.0617e-08
1.08921e-08
1.11743e-08
1.14638e-08
1.17608e-08
1.20655e-08
1.23781e-08
1.26988e-08
1.30278e-08
1.33653e-08
1.37116e-08
1.40668e-08
1.44313e-08
1.48051e-08
1.51887e-08
1.55822e-08
1.59859e-08
1.64001e-08
1.6825e-08
1.72609e-08
1.77081e-08
1.81668e-08
1.86375e-08
1.91204e-08
1.96157e-08
2.0124e-08
2.06453e-08
2.11802e-08
2.17289e-08
2.22919e-08
2.28694e-08
2.34619e-08
2.40698e-08
2.46934e-08
2.53331e-08
2.59895e-08
2.66628e-08
2.73536e-08
2.80622e-08
2.87893e-08
2.95352e-08
3.03004e-08
3.10854e-08
3.18907e-08
3.2717e-08
3.35646e-08
3.44342e-08
3.53263e-08
3.62415e-08
3.71805e-08
3.81437e-08
3.9132e-08
4.01458e-08
4.11859e-08
4.22529e-08
4.33476e-08
4.44707e-08
4.56228e-08
4.68048e-08
4.80174e-08
4.92615e-08
5.05377e-08
5.18471e-08
5.31903e-08
5.45684e-08
5.59821e-08
5.74325e-08
5.89205e-08
6.0447e-08
6.2013e-08
6.36197e-08
6.52679e-08
6.69589e-08
6.86936e-08
7.04734e-08
7.22992e-08
2.06222e-09
2.11565e-09
2.17046e-09
2.22669e-09
2.28438e-09
2.34356e-09
2.40428e-09
2.46657e-09
2.53047e-09
2.59603e-09
2.66329e-09
2.73229e-09
2.80308e-09
2.8757e-09
2.95021e-09
3.02664e-09
3.10505e-09
3.1855e-09
3.26803e-09
3.3527e-09
3.43956e-09
3.52867e-09
3.62009e-09
3.71388e-09
3.8101e-09
3.90881e-09
4.01008e-09
4.11398e-09
4.22056e-09
4.32991e-09
4.44209e-09
4.55717e-09
4.67524e-09
4.79636e-09
4.92063e-09
5.04811e-09
5.1789e-09
5.31307e-09
5.45072e-09
5.59194e-09
5.73682e-09
5.88545e-09
6.03793e-09
6.19436e-09
6.35484e-09
6.51948e-09
6.68839e-09
6.86167e-09
7.03944e-09
7.22182e-09
7.40892e-09
7.60087e-09
7.79779e-09
7.99982e-09
8.20708e-09
8.41971e-09
8.63784e-09
8.86163e-09
9.09122e-09
9.32676e-09
9.56839e-09
9.81629e-09
1.00706e-08
1.03315e-08
1.05992e-08
1.08738e-08
1.11555e-08
1.14445e-08
1.1741e-08
1.20452e-08
1.23573e-08
1.26774e-08
1.30059e-08
1.33428e-08
1.36885e-08
1.40432e-08
1.4407e-08
1.47803e-08
1.51632e-08
1.5556e-08
1.59591e-08
1.63725e-08
1.67967e-08
1.72319e-08
1.76783e-08
1.81363e-08
1.86062e-08
1.90882e-08
1.95828e-08
2.00901e-08
2.06106e-08
2.11446e-08
2.16924e-08
2.22544e-08
2.2831e-08
2.34225e-08
2.40293e-08
2.46519e-08
2.52906e-08
2.59458e-08
2.6618e-08
2.73076e-08
2.80151e-08
2.87409e-08
2.94855e-08
3.02494e-08
3.10331e-08
3.18371e-08
3.2662e-08
3.35082e-08
3.43763e-08
3.52669e-08
3.61806e-08
3.7118e-08
3.80796e-08
3.90662e-08
4.00783e-08
4.11167e-08
4.21819e-08
4.32748e-08
4.43959e-08
4.55461e-08
4.67262e-08
4.79367e-08
4.91787e-08
5.04528e-08
5.17599e-08
5.31009e-08
5.44767e-08
5.5888e-08
5.7336e-08
5.88214e-08
6.03454e-08
6.19088e-08
6.35127e-08
6.51582e-08
6.68463e-08
6.85782e-08
7.03549e-08
7.21777e-08
2.02369e-09
2.07612e-09
2.12991e-09
2.18509e-09
2.2417e-09
2.29978e-09
2.35936e-09
2.42049e-09
2.4832e-09
2.54753e-09
2.61353e-09
2.68124e-09
2.75071e-09
2.82197e-09
2.89508e-09
2.97009e-09
3.04704e-09
3.12598e-09
3.20697e-09
3.29006e-09
3.37529e-09
3.46274e-09
3.55245e-09
3.64449e-09
3.73891e-09
3.83578e-09
3.93516e-09
4.03711e-09
4.1417e-09
4.24901e-09
4.35909e-09
4.47202e-09
4.58789e-09
4.70675e-09
4.82869e-09
4.95379e-09
5.08213e-09
5.2138e-09
5.34888e-09
5.48746e-09
5.62963e-09
5.77548e-09
5.92511e-09
6.07862e-09
6.2361e-09
6.39767e-09
6.56342e-09
6.73346e-09
6.90792e-09
7.08689e-09
7.27049e-09
7.45886e-09
7.6521e-09
7.85035e-09
8.05374e-09
8.26239e-09
8.47645e-09
8.69606e-09
8.92136e-09
9.15249e-09
9.38962e-09
9.63288e-09
9.88245e-09
1.01385e-08
1.04012e-08
1.06706e-08
1.09471e-08
1.12307e-08
1.15217e-08
1.18202e-08
1.21264e-08
1.24406e-08
1.27629e-08
1.30935e-08
1.34328e-08
1.37808e-08
1.41378e-08
1.45041e-08
1.48799e-08
1.52654e-08
1.56609e-08
1.60666e-08
1.64829e-08
1.69099e-08
1.7348e-08
1.77975e-08
1.82586e-08
1.87316e-08
1.92169e-08
1.97148e-08
2.02255e-08
2.07495e-08
2.12871e-08
2.18386e-08
2.24044e-08
2.29849e-08
2.35804e-08
2.41913e-08
2.4818e-08
2.5461e-08
2.61206e-08
2.67974e-08
2.74916e-08
2.82039e-08
2.89346e-08
2.96842e-08
3.04533e-08
3.12423e-08
3.20517e-08
3.28821e-08
3.3734e-08
3.4608e-08
3.55046e-08
3.64245e-08
3.73682e-08
3.83363e-08
3.93295e-08
4.03484e-08
4.13938e-08
4.24662e-08
4.35664e-08
4.46952e-08
4.58531e-08
4.70411e-08
4.82598e-08
4.95101e-08
5.07928e-08
5.21088e-08
5.34588e-08
5.48438e-08
5.62647e-08
5.77224e-08
5.92179e-08
6.07521e-08
6.23261e-08
6.39408e-08
6.55974e-08
6.72969e-08
6.90404e-08
7.08291e-08
1.9599e-09
2.01068e-09
2.06277e-09
2.11622e-09
2.17104e-09
2.22729e-09
2.28499e-09
2.34419e-09
2.40493e-09
2.46723e-09
2.53115e-09
2.59673e-09
2.66401e-09
2.73303e-09
2.80383e-09
2.87648e-09
2.951e-09
3.02745e-09
3.10589e-09
3.18636e-09
3.26891e-09
3.3536e-09
3.44048e-09
3.52962e-09
3.62106e-09
3.71488e-09
3.81112e-09
3.90986e-09
4.01116e-09
4.11508e-09
4.22169e-09
4.33107e-09
4.44328e-09
4.55839e-09
4.67649e-09
4.79765e-09
4.92195e-09
5.04947e-09
5.18029e-09
5.3145e-09
5.45219e-09
5.59344e-09
5.73836e-09
5.88703e-09
6.03955e-09
6.19602e-09
6.35655e-09
6.52123e-09
6.69018e-09
6.86351e-09
7.04133e-09
7.22376e-09
7.41091e-09
7.60291e-09
7.79989e-09
8.00197e-09
8.20928e-09
8.42197e-09
8.64016e-09
8.86401e-09
9.09366e-09
9.32926e-09
9.57096e-09
9.81893e-09
1.00733e-08
1.03343e-08
1.0602e-08
1.08767e-08
1.11585e-08
1.14476e-08
1.17442e-08
1.20485e-08
1.23606e-08
1.26808e-08
1.30094e-08
1.33464e-08
1.36922e-08
1.40469e-08
1.44109e-08
1.47842e-08
1.51673e-08
1.55602e-08
1.59633e-08
1.63769e-08
1.68012e-08
1.72365e-08
1.76831e-08
1.81412e-08
1.86112e-08
1.90934e-08
1.9588e-08
2.00955e-08
2.06162e-08
2.11503e-08
2.16982e-08
2.22604e-08
2.28371e-08
2.34288e-08
2.40358e-08
2.46585e-08
2.52973e-08
2.59527e-08
2.66251e-08
2.73149e-08
2.80226e-08
2.87486e-08
2.94934e-08
3.02575e-08
3.10415e-08
3.18457e-08
3.26707e-08
3.35172e-08
3.43855e-08
3.52764e-08
3.61903e-08
3.7128e-08
3.80899e-08
3.90767e-08
4.00891e-08
4.11277e-08
4.21933e-08
4.32864e-08
4.44079e-08
4.55584e-08
4.67387e-08
4.79496e-08
4.91919e-08
5.04663e-08
5.17738e-08
5.31152e-08
5.44913e-08
5.5903e-08
5.73514e-08
5.88372e-08
6.03616e-08
6.19254e-08
6.35298e-08
6.51757e-08
6.68643e-08
6.85966e-08
1.87855e-09
1.92722e-09
1.97715e-09
2.02838e-09
2.08093e-09
2.13484e-09
2.19015e-09
2.24689e-09
2.30511e-09
2.36483e-09
2.4261e-09
2.48895e-09
2.55343e-09
2.61959e-09
2.68746e-09
2.75708e-09
2.82851e-09
2.90179e-09
2.97697e-09
3.0541e-09
3.13323e-09
3.2144e-09
3.29768e-09
3.38312e-09
3.47077e-09
3.56069e-09
3.65294e-09
3.74758e-09
3.84467e-09
3.94428e-09
4.04647e-09
4.1513e-09
4.25885e-09
4.36919e-09
4.48239e-09
4.59852e-09
4.71766e-09
4.83988e-09
4.96527e-09
5.09391e-09
5.22589e-09
5.36128e-09
5.50018e-09
5.64268e-09
5.78887e-09
5.93884e-09
6.09271e-09
6.25056e-09
6.4125e-09
6.57863e-09
6.74907e-09
6.92392e-09
7.10331e-09
7.28734e-09
7.47614e-09
7.66983e-09
7.86854e-09
8.0724e-09
8.28154e-09
8.4961e-09
8.71622e-09
8.94204e-09
9.17371e-09
9.41138e-09
9.65521e-09
9.90535e-09
1.0162e-08
1.04253e-08
1.06954e-08
1.09724e-08
1.12567e-08
1.15484e-08
1.18476e-08
1.21545e-08
1.24694e-08
1.27925e-08
1.31239e-08
1.34639e-08
1.38127e-08
1.41706e-08
1.45377e-08
1.49144e-08
1.53008e-08
1.56972e-08
1.61038e-08
1.65211e-08
1.69491e-08
1.73882e-08
1.78387e-08
1.83009e-08
1.8775e-08
1.92614e-08
1.97605e-08
2.02724e-08
2.07976e-08
2.13364e-08
2.18892e-08
2.24563e-08
2.30381e-08
2.3635e-08
2.42473e-08
2.48755e-08
2.552e-08
2.61812e-08
2.68595e-08
2.75554e-08
2.82693e-08
2.90017e-08
2.9753e-08
3.05239e-08
3.13147e-08
3.2126e-08
3.29583e-08
3.38122e-08
3.46882e-08
3.55869e-08
3.65089e-08
3.74548e-08
3.84251e-08
3.94206e-08
4.0442e-08
4.14897e-08
4.25646e-08
4.36674e-08
4.47987e-08
4.59594e-08
4.71501e-08
4.83717e-08
4.96249e-08
5.09106e-08
5.22295e-08
5.35827e-08
5.49709e-08
5.63951e-08
5.78562e-08
5.93551e-08
6.08929e-08
6.24705e-08
6.4089e-08
6.57494e-08
1.78564e-09
1.8319e-09
1.87936e-09
1.92805e-09
1.978e-09
2.02925e-09
2.08182e-09
2.13576e-09
2.19109e-09
2.24786e-09
2.30609e-09
2.36584e-09
2.42713e-09
2.49002e-09
2.55453e-09
2.62071e-09
2.68861e-09
2.75826e-09
2.82972e-09
2.90304e-09
2.97825e-09
3.05541e-09
3.13457e-09
3.21578e-09
3.29909e-09
3.38457e-09
3.47225e-09
3.56221e-09
3.6545e-09
3.74918e-09
3.84632e-09
3.94597e-09
4.0482e-09
4.15308e-09
4.26068e-09
4.37106e-09
4.48431e-09
4.60049e-09
4.71968e-09
4.84195e-09
4.9674e-09
5.09609e-09
5.22812e-09
5.36357e-09
5.50253e-09
5.64509e-09
5.79135e-09
5.94139e-09
6.09532e-09
6.25323e-09
6.41524e-09
6.58145e-09
6.75196e-09
6.92689e-09
7.10635e-09
7.29046e-09
7.47934e-09
7.67312e-09
7.87191e-09
8.07586e-09
8.28509e-09
8.49974e-09
8.71995e-09
8.94586e-09
9.17763e-09
9.41541e-09
9.65934e-09
9.9096e-09
1.01663e-08
1.04297e-08
1.06999e-08
1.09771e-08
1.12615e-08
1.15533e-08
1.18526e-08
1.21597e-08
1.24747e-08
1.27979e-08
1.31295e-08
1.34697e-08
1.38186e-08
1.41766e-08
1.45439e-08
1.49207e-08
1.53073e-08
1.57039e-08
1.61107e-08
1.65281e-08
1.69564e-08
1.73957e-08
1.78463e-08
1.83087e-08
1.8783e-08
1.92697e-08
1.97689e-08
2.02811e-08
2.08065e-08
2.13456e-08
2.18986e-08
2.2466e-08
2.3048e-08
2.36451e-08
2.42577e-08
2.48862e-08
2.55309e-08
2.61924e-08
2.6871e-08
2.75672e-08
2.82814e-08
2.90141e-08
2.97658e-08
3.0537e-08
3.13281e-08
3.21397e-08
3.29724e-08
3.38267e-08
3.47031e-08
3.56021e-08
3.65245e-08
3.74708e-08
3.84416e-08
3.94375e-08
4.04593e-08
4.15075e-08
4.25829e-08
4.36861e-08
4.48179e-08
4.59791e-08
4.71703e-08
4.83924e-08
4.96461e-08
5.09324e-08
5.22519e-08
5.36056e-08
5.49945e-08
5.64193e-08
5.7881e-08
5.93805e-08
6.0919e-08
6.24973e-08
1.68578e-09
1.72946e-09
1.77426e-09
1.82023e-09
1.86739e-09
1.91577e-09
1.9654e-09
2.01632e-09
2.06856e-09
2.12215e-09
2.17714e-09
2.23354e-09
2.29141e-09
2.35077e-09
2.41168e-09
2.47416e-09
2.53826e-09
2.60402e-09
2.67148e-09
2.7407e-09
2.8117e-09
2.88455e-09
2.95928e-09
3.03595e-09
3.11461e-09
3.1953e-09
3.27808e-09
3.36301e-09
3.45014e-09
3.53953e-09
3.63123e-09
3.72531e-09
3.82182e-09
3.92084e-09
4.02242e-09
4.12663e-09
4.23354e-09
4.34322e-09
4.45575e-09
4.57119e-09
4.68962e-09
4.81112e-09
4.93576e-09
5.06364e-09
5.19483e-09
5.32942e-09
5.46749e-09
5.60914e-09
5.75446e-09
5.90355e-09
6.0565e-09
6.21341e-09
6.37439e-09
6.53953e-09
6.70896e-09
6.88278e-09
7.06109e-09
7.24403e-09
7.43171e-09
7.62425e-09
7.82178e-09
8.02443e-09
8.23232e-09
8.44561e-09
8.66441e-09
8.88889e-09
9.11918e-09
9.35544e-09
9.59782e-09
9.84648e-09
1.01016e-08
1.03633e-08
1.06318e-08
1.09072e-08
1.11898e-08
1.14797e-08
1.17771e-08
1.20823e-08
1.23953e-08
1.27164e-08
1.30459e-08
1.33839e-08
1.37306e-08
1.40864e-08
1.44513e-08
1.48257e-08
1.52098e-08
1.56039e-08
1.60081e-08
1.64229e-08
1.68484e-08
1.72849e-08
1.77327e-08
1.81921e-08
1.86634e-08
1.9147e-08
1.9643e-08
2.01519e-08
2.0674e-08
2.12096e-08
2.17591e-08
2.23229e-08
2.29012e-08
2.34945e-08
2.41032e-08
2.47277e-08
2.53683e-08
2.60256e-08
2.66999e-08
2.73916e-08
2.81013e-08
2.88293e-08
2.95762e-08
3.03425e-08
3.11286e-08
3.19351e-08
3.27624e-08
3.36112e-08
3.4482e-08
3.53754e-08
3.62919e-08
3.72322e-08
3.81968e-08
3.91864e-08
4.02016e-08
4.12431e-08
4.23117e-08
4.34079e-08
4.45325e-08
4.56862e-08
4.68699e-08
4.80842e-08
4.93299e-08
5.0608e-08
5.19191e-08
5.32643e-08
5.46442e-08
5.60599e-08
5.75123e-08
5.90024e-08
1.58254e-09
1.62354e-09
1.6656e-09
1.70876e-09
1.75303e-09
1.79844e-09
1.84504e-09
1.89284e-09
1.94188e-09
1.99219e-09
2.0438e-09
2.09675e-09
2.15108e-09
2.20681e-09
2.26398e-09
2.32263e-09
2.38281e-09
2.44454e-09
2.50788e-09
2.57285e-09
2.63951e-09
2.70789e-09
2.77805e-09
2.85002e-09
2.92386e-09
2.99961e-09
3.07732e-09
3.15705e-09
3.23884e-09
3.32276e-09
3.40884e-09
3.49716e-09
3.58776e-09
3.68071e-09
3.77607e-09
3.8739e-09
3.97427e-09
4.07724e-09
4.18287e-09
4.29124e-09
4.40241e-09
4.51647e-09
4.63349e-09
4.75353e-09
4.87668e-09
5.00303e-09
5.13265e-09
5.26562e-09
5.40204e-09
5.542e-09
5.68558e-09
5.83288e-09
5.984e-09
6.13904e-09
6.29809e-09
6.46126e-09
6.62865e-09
6.80039e-09
6.97657e-09
7.15732e-09
7.34275e-09
7.53299e-09
7.72816e-09
7.92838e-09
8.13378e-09
8.34451e-09
8.5607e-09
8.78249e-09
9.01003e-09
9.24346e-09
9.48294e-09
9.72862e-09
9.98067e-09
1.02393e-08
1.05045e-08
1.07767e-08
1.10559e-08
1.13423e-08
1.16362e-08
1.19376e-08
1.22469e-08
1.25642e-08
1.28897e-08
1.32237e-08
1.35663e-08
1.39178e-08
1.42783e-08
1.46483e-08
1.50278e-08
1.54171e-08
1.58165e-08
1.62263e-08
1.66467e-08
1.7078e-08
1.75204e-08
1.79743e-08
1.844e-08
1.89178e-08
1.94079e-08
1.99107e-08
2.04266e-08
2.09558e-08
2.14987e-08
2.20557e-08
2.26271e-08
2.32133e-08
2.38147e-08
2.44317e-08
2.50647e-08
2.57141e-08
2.63803e-08
2.70637e-08
2.77649e-08
2.84842e-08
2.92222e-08
2.99793e-08
3.0756e-08
3.15528e-08
3.23703e-08
3.32089e-08