/*--------------------------------*- C++ -*----------------------------------*\
| =========                 |                                                 |
| \\      /  F ield         | OpenFOAM: The Open Source CFD Toolbox           |
|  \\    /   O peration     | Version:  4.x                                   |
|   \\  /    A nd           | Web:      www.OpenFOAM.org                      |
|    \\/     M anipulation  |                                                 |
\*---------------------------------------------------------------------------*/
FoamFile
{
    version     2.0;
    format      ascii;
    class       volScalarField;
    location    "1";
    object      nut;
}
// * * * * * * * * * * * * * * * * * * * * * * * * * * * * * * * * * * * * * //

dimensions      [0 2 -1 0 0 0 0];

internalField   nonuniform List<scalar> 
11990
(
1.33253e-08
1.33331e-08
1.33408e-08
1.33485e-08
1.33561e-08
1.33637e-08
1.33713e-08
1.33788e-08
1.33863e-08
1.33937e-08
1.34011e-08
1.34085e-08
1.34159e-08
1.34233e-08
1.34306e-08
1.34379e-08
1.34451e-08
1.34523e-08
1.34595e-08
1.34667e-08
1.34738e-08
1.34809e-08
1.3488e-08
1.3495e-08
1.3502e-08
1.35089e-08
1.35158e-08
1.35227e-08
1.35295e-08
1.35363e-08
1.33271e-08
1.33382e-08
1.33492e-08
1.33599e-08
1.33704e-08
1.33807e-08
1.33909e-08
1.34009e-08
1.34108e-08
1.34206e-08
1.34303e-08
1.34398e-08
1.34492e-08
1.34585e-08
1.34676e-08
1.34767e-08
1.34856e-08
1.34944e-08
1.35031e-08
1.35116e-08
1.352e-08
1.35284e-08
1.35366e-08
1.35447e-08
1.35526e-08
1.35605e-08
1.35683e-08
1.3576e-08
1.35837e-08
1.35913e-08
1.3325e-08
1.33317e-08
1.33381e-08
1.33442e-08
1.33501e-08
1.3356e-08
1.33617e-08
1.33673e-08
1.33729e-08
1.33784e-08
1.33839e-08
1.33892e-08
1.33945e-08
1.33997e-08
1.34048e-08
1.34098e-08
1.34148e-08
1.34197e-08
1.34245e-08
1.34292e-08
1.34338e-08
1.34384e-08
1.3443e-08
1.34475e-08
1.34519e-08
1.34563e-08
1.34608e-08
1.34652e-08
1.34697e-08
1.34743e-08
1.332e-08
1.3318e-08
1.33169e-08
1.33167e-08
1.3317e-08
1.33177e-08
1.33189e-08
1.33203e-08
1.33221e-08
1.33241e-08
1.33265e-08
1.33291e-08
1.3332e-08
1.33351e-08
1.33385e-08
1.33422e-08
1.33462e-08
1.33504e-08
1.33548e-08
1.33595e-08
1.33645e-08
1.33696e-08
1.3375e-08
1.33806e-08
1.33863e-08
1.33923e-08
1.33983e-08
1.34044e-08
1.34105e-08
1.34166e-08
1.33292e-08
1.3345e-08
1.3361e-08
1.33771e-08
1.33933e-08
1.34094e-08
1.34256e-08
1.34417e-08
1.34579e-08
1.3474e-08
1.34902e-08
1.35064e-08
1.35227e-08
1.3539e-08
1.35554e-08
1.3572e-08
1.35886e-08
1.36053e-08
1.36222e-08
1.36391e-08
1.36562e-08
1.36733e-08
1.36906e-08
1.37079e-08
1.37253e-08
1.37428e-08
1.37603e-08
1.37777e-08
1.37949e-08
1.38117e-08
1.33363e-08
1.3366e-08
1.33958e-08
1.34257e-08
1.34556e-08
1.34855e-08
1.35154e-08
1.35454e-08
1.35753e-08
1.36053e-08
1.36354e-08
1.36656e-08
1.36959e-08
1.37263e-08
1.37569e-08
1.37877e-08
1.38187e-08
1.38498e-08
1.38811e-08
1.39126e-08
1.39443e-08
1.39762e-08
1.40082e-08
1.40403e-08
1.40724e-08
1.41044e-08
1.41362e-08
1.41678e-08
1.41992e-08
1.42315e-08
1.33427e-08
1.33859e-08
1.34298e-08
1.34743e-08
1.35192e-08
1.35646e-08
1.36103e-08
1.36564e-08
1.3703e-08
1.37499e-08
1.37974e-08
1.38455e-08
1.38941e-08
1.39434e-08
1.39933e-08
1.40438e-08
1.4095e-08
1.41467e-08
1.4199e-08
1.42516e-08
1.43044e-08
1.4357e-08
1.44093e-08
1.44609e-08
1.45117e-08
1.4562e-08
1.46131e-08
1.46688e-08
1.47367e-08
1.48338e-08
1.33547e-08
1.34231e-08
1.34936e-08
1.35657e-08
1.36392e-08
1.3714e-08
1.379e-08
1.38673e-08
1.3946e-08
1.40261e-08
1.4108e-08
1.41916e-08
1.42772e-08
1.43646e-08
1.44541e-08
1.45454e-08
1.46385e-08
1.47334e-08
1.48305e-08
1.49304e-08
1.50354e-08
1.51496e-08
1.52806e-08
1.54406e-08
1.56494e-08
1.59367e-08
1.63464e-08
1.69429e-08
1.78086e-08
1.90695e-08
1.33784e-08
1.34966e-08
1.36197e-08
1.37475e-08
1.38797e-08
1.40164e-08
1.41575e-08
1.43036e-08
1.44552e-08
1.46131e-08
1.47783e-08
1.49518e-08
1.51356e-08
1.53324e-08
1.5547e-08
1.57881e-08
1.60707e-08
1.64206e-08
1.68796e-08
1.75147e-08
1.84299e-08
1.97865e-08
2.1836e-08
2.49793e-08
2.98691e-08
3.75925e-08
4.99776e-08
7.00522e-08
1.02531e-07
1.54399e-07
1.34247e-08
1.36455e-08
1.38842e-08
1.41416e-08
1.44176e-08
1.47127e-08
1.50295e-08
1.53726e-08
1.57499e-08
1.61737e-08
1.66644e-08
1.72556e-08
1.80047e-08
1.90083e-08
2.04301e-08
2.25459e-08
2.58261e-08
3.10912e-08
3.98132e-08
5.47141e-08
8.09127e-08
1.28095e-07
2.14294e-07
3.72003e-07
6.56525e-07
1.15492e-06
1.99053e-06
3.31221e-06
5.2671e-06
7.90071e-06
1.35366e-08
1.40285e-08
1.45984e-08
1.5248e-08
1.59853e-08
1.68347e-08
1.7846e-08
1.91065e-08
2.07675e-08
2.30959e-08
2.65728e-08
3.20885e-08
4.13391e-08
5.76691e-08
8.78236e-08
1.45575e-07
2.58553e-07
4.79988e-07
9.04829e-07
1.6858e-06
3.03593e-06
5.20433e-06
8.41811e-06
1.28122e-05
1.83768e-05
2.49546e-05
3.22831e-05
4.00355e-05
4.79353e-05
5.54288e-05
1.38475e-08
1.51447e-08
1.67566e-08
1.87965e-08
2.15314e-08
2.54675e-08
3.15675e-08
4.17468e-08
6.00228e-08
9.5034e-08
1.65666e-07
3.12461e-07
6.17681e-07
1.23266e-06
2.39732e-06
4.42474e-06
7.62528e-06
1.21949e-05
1.81237e-05
2.51945e-05
3.3057e-05
4.13399e-05
4.97249e-05
5.79831e-05
6.59676e-05
7.35942e-05
8.08213e-05
8.75993e-05
9.39836e-05
9.95561e-05
1.46845e-08
1.81856e-08
2.35752e-08
3.31321e-08
5.18685e-08
9.11892e-08
1.78268e-07
3.75745e-07
8.1593e-07
1.73821e-06
3.49303e-06
6.46286e-06
1.09089e-05
1.68378e-05
2.39822e-05
3.1915e-05
4.01908e-05
4.84546e-05
5.64664e-05
6.40903e-05
7.12584e-05
7.79492e-05
8.41676e-05
8.99366e-05
9.52898e-05
0.000100265
0.000104904
0.000109215
0.000113346
0.000116643
1.60447e-08
2.71312e-08
5.7047e-08
1.44495e-07
3.94063e-07
1.03554e-06
2.45041e-06
5.07308e-06
9.18696e-06
1.47681e-05
2.14954e-05
2.88993e-05
3.65237e-05
4.40203e-05
5.11643e-05
5.78347e-05
6.39848e-05
6.96172e-05
7.47643e-05
7.94744e-05
8.38002e-05
8.77896e-05
9.14833e-05
9.49126e-05
9.81043e-05
0.00010108
0.000103864
0.000106469
0.000108884
0.000110004
2.1922e-08
8.5724e-08
3.55282e-07
1.22962e-06
3.23364e-06
6.63023e-06
1.12674e-05
1.67568e-05
2.26598e-05
2.86077e-05
3.4343e-05
3.97052e-05
4.46142e-05
4.90543e-05
5.30552e-05
5.66645e-05
5.99335e-05
6.29024e-05
6.56066e-05
6.80741e-05
7.03358e-05
7.24179e-05
7.43475e-05
7.61434e-05
7.78234e-05
7.93965e-05
8.08762e-05
8.23123e-05
8.29063e-05
8.15474e-05
4.88385e-08
3.68338e-07
1.29652e-06
2.74094e-06
4.6399e-06
6.88782e-06
9.29009e-06
1.16996e-05
1.40316e-05
1.62391e-05
1.82935e-05
2.01796e-05
2.18913e-05
2.34298e-05
2.48093e-05
2.6049e-05
2.71724e-05
2.81956e-05
2.91326e-05
2.99904e-05
3.0779e-05
3.15052e-05
3.21794e-05
3.28078e-05
3.33978e-05
3.39518e-05
3.44811e-05
3.50744e-05
3.65045e-05
3.49529e-05
8.28833e-08
1.80896e-07
1.89504e-07
7.97658e-08
7.22218e-08
9.46037e-08
1.20888e-07
1.45604e-07
1.69221e-07
1.91756e-07
2.13168e-07
2.33205e-07
2.51792e-07
2.68842e-07
2.84396e-07
2.98593e-07
3.11573e-07
3.23517e-07
3.34495e-07
3.44631e-07
3.53957e-07
3.62602e-07
3.70618e-07
3.78128e-07
3.85192e-07
3.91925e-07
3.98625e-07
4.00092e-07
1.11633e-06
1.05971e-06
1.35415e-08
1.35452e-08
1.35491e-08
1.3553e-08
1.35571e-08
1.35614e-08
1.35657e-08
1.35702e-08
1.35748e-08
1.35795e-08
1.35843e-08
1.35893e-08
1.35943e-08
1.35995e-08
1.36049e-08
1.36103e-08
1.36159e-08
1.36216e-08
1.36275e-08
1.36335e-08
1.36396e-08
1.36459e-08
1.36523e-08
1.36589e-08
1.36657e-08
1.36726e-08
1.36797e-08
1.36869e-08
1.36944e-08
1.37019e-08
1.37097e-08
1.37176e-08
1.37257e-08
1.37341e-08
1.37426e-08
1.37514e-08
1.37608e-08
1.37719e-08
1.37895e-08
1.38337e-08
1.39994e-08
1.47445e-08
1.85463e-08
4.755e-08
5.91012e-07
1.83664e-05
0.00014951
0.000362108
0.000632114
0.000938121
0.00125056
0.00155365
0.00184389
0.00212246
0.0023909
0.00265022
0.00290101
0.00314364
0.00337841
0.00360556
0.00382531
0.00403788
0.00424345
0.00444224
0.00463442
0.0048202
0.00499975
0.00517327
0.00534094
0.00550294
0.00565943
0.00581058
0.00595656
0.00609752
0.00623362
0.00636501
0.00649183
0.00661422
0.00673232
0.00684624
0.00695612
0.00706207
0.00716421
0.00726263
0.00735744
0.00744875
0.00753664
0.0076212
0.00770252
0.00778068
0.00785575
0.00792782
0.00799696
0.00806322
0.00812669
0.00818742
0.00824548
0.00830093
0.00835382
0.0084042
0.00845215
0.0084977
0.0085409
0.00858181
0.00862048
0.00865695
0.00869127
0.00872348
0.00875363
0.00878176
0.0088079
0.00883211
0.0088544
0.00887481
0.00889334
0.00891003
0.00892492
0.00893807
0.00894948
0.00895918
0.00896719
0.00897354
0.00897823
0.00898128
0.00898272
0.0089826
0.0089809
0.00897761
0.00897273
0.00896628
0.00895827
0.00894867
0.00893745
0.00892462
0.00891012
0.00889392
0.00887589
0.00885592
0.00883356
0.00880943
1.35971e-08
1.36013e-08
1.36056e-08
1.361e-08
1.36146e-08
1.36193e-08
1.36241e-08
1.3629e-08
1.3634e-08
1.36391e-08
1.36444e-08
1.36498e-08
1.36552e-08
1.36608e-08
1.36665e-08
1.36724e-08
1.36783e-08
1.36844e-08
1.36906e-08
1.3697e-08
1.37035e-08
1.37101e-08
1.37169e-08
1.37238e-08
1.37308e-08
1.3738e-08
1.37453e-08
1.37528e-08
1.37605e-08
1.37683e-08
1.37763e-08
1.37845e-08
1.3793e-08
1.38024e-08
1.38142e-08
1.38346e-08
1.38884e-08
1.40783e-08
1.48452e-08
1.83841e-08
4.04977e-08
2.9995e-07
5.72383e-06
6.60421e-05
0.00021005
0.00038819
0.000591065
0.00080381
0.00101978
0.0012436
0.0014796
0.00172574
0.0019767
0.00222782
0.00247623
0.00272033
0.00295925
0.00319245
0.00341961
0.00364055
0.00385518
0.00406349
0.0042655
0.00446128
0.00465093
0.00483455
0.00501225
0.00518419
0.0053505
0.00551132
0.00566679
0.00581707
0.00596228
0.00610257
0.00623808
0.00636896
0.00649533
0.00661733
0.00673507
0.0068487
0.00695831
0.00706402
0.00716594
0.00726418
0.00735883
0.00744998
0.00753774
0.00762219
0.0077034
0.00778147
0.00785646
0.00792846
0.00799752
0.00806373
0.00812715
0.00818783
0.00824585
0.00830126
0.00835411
0.00840447
0.00845238
0.00849791
0.00854109
0.00858199
0.00862064
0.00865709
0.0086914
0.0087236
0.00875373
0.00878185
0.00880798
0.00883218
0.00885447
0.00887488
0.0088934
0.00891009
0.00892498
0.00893812
0.00894953
0.00895923
0.00896724
0.00897358
0.00897826
0.00898131
0.00898276
0.00898263
0.00898093
0.00897764
0.00897276
0.00896631
0.0089583
0.0089487
0.00893748
0.00892465
0.00891015
0.00889394
0.00887591
0.00885594
0.00883358
0.00880944
1.34778e-08
1.34805e-08
1.34833e-08
1.34863e-08
1.34895e-08
1.34928e-08
1.34962e-08
1.34998e-08
1.35035e-08
1.35073e-08
1.35112e-08
1.35152e-08
1.35194e-08
1.35237e-08
1.3528e-08
1.35325e-08
1.35372e-08
1.35419e-08
1.35469e-08
1.35519e-08
1.35571e-08
1.35625e-08
1.3568e-08
1.35737e-08
1.35795e-08
1.35856e-08
1.35918e-08
1.35983e-08
1.36053e-08
1.36131e-08
1.36231e-08
1.36397e-08
1.36781e-08
1.3793e-08
1.41895e-08
1.56878e-08
2.24135e-08
6.4803e-08
5.48509e-07
8.20356e-06
6.77558e-05
0.000192884
0.000341493
0.000505713
0.000675918
0.000845537
0.00101557
0.00118953
0.00136922
0.00155591
0.00175131
0.00195627
0.00216961
0.00238871
0.00261072
0.00283328
0.00305456
0.00327327
0.00348846
0.00369945
0.00390576
0.00410708
0.00430319
0.00449397
0.00467935
0.00485932
0.0050339
0.00520315
0.00536713
0.00552594
0.00567966
0.00582841
0.0059723
0.00611143
0.00624593
0.00637592
0.00650151
0.00662282
0.00673996
0.00685304
0.00696218
0.00706747
0.00716902
0.00726693
0.00736128
0.00745218
0.00753971
0.00762394
0.00770497
0.00778287
0.00785772
0.00792958
0.00799854
0.00806464
0.00812796
0.00818856
0.0082465
0.00830184
0.00835463
0.00840494
0.0084528
0.00849828
0.00854142
0.00858228
0.0086209
0.00865733
0.00869161
0.00872378
0.0087539
0.008782
0.00880812
0.0088323
0.00885457
0.00887497
0.00889349
0.00891017
0.00892506
0.00893819
0.00894959
0.00895928
0.00896729
0.00897363
0.00897832
0.00898137
0.00898282
0.0089827
0.00898099
0.0089777
0.00897282
0.00896636
0.00895835
0.00894874
0.00893753
0.00892469
0.00891019
0.00889398
0.00887595
0.00885598
0.00883362
0.00880948
1.34214e-08
1.3425e-08
1.34289e-08
1.34332e-08
1.34378e-08
1.34428e-08
1.3448e-08
1.34535e-08
1.34593e-08
1.34652e-08
1.34714e-08
1.34779e-08
1.34845e-08
1.34914e-08
1.34985e-08
1.35059e-08
1.35136e-08
1.35215e-08
1.35298e-08
1.35383e-08
1.35472e-08
1.35565e-08
1.35663e-08
1.35768e-08
1.35882e-08
1.36012e-08
1.36176e-08
1.36426e-08
1.36907e-08
1.38082e-08
1.41453e-08
1.52271e-08
1.91901e-08
3.75005e-08
1.68086e-07
1.67496e-06
1.83861e-05
9.26507e-05
0.000209429
0.000340072
0.000479016
0.000619733
0.00075898
0.000898446
0.00104098
0.00118762
0.00133831
0.00149328
0.00165313
0.00181857
0.00199062
0.00217027
0.00235774
0.00255213
0.00275173
0.00295459
0.00315888
0.00336305
0.00356585
0.00376629
0.00396363
0.00415729
0.00434686
0.00453203
0.0047126
0.00488842
0.00505942
0.00522557
0.00538686
0.00554333
0.00569502
0.00584199
0.00598431
0.00612208
0.00625538
0.00638431
0.00650897
0.00662946
0.00674587
0.00685831
0.00696688
0.00707167
0.00717277
0.00727028
0.00736428
0.00745486
0.00754211
0.00762609
0.0077069
0.0077846
0.00785927
0.00793097
0.00799977
0.00806575
0.00812895
0.00818945
0.0082473
0.00830255
0.00835527
0.0084055
0.00845331
0.00849873
0.00854183
0.00858264
0.00862122
0.00865761
0.00869186
0.00872401
0.0087541
0.00878217
0.00880827
0.00883243
0.00885469
0.00887507
0.00889358
0.00891025
0.00892513
0.00893826
0.00894965
0.00895934
0.00896734
0.00897368
0.00897837
0.00898142
0.00898287
0.00898275
0.00898104
0.00897775
0.00897288
0.00896643
0.00895841
0.0089488
0.00893758
0.00892475
0.00891024
0.00889403
0.00887601
0.00885603
0.00883367
0.00880952
1.38247e-08
1.38338e-08
1.38433e-08
1.38533e-08
1.38637e-08
1.38745e-08
1.38857e-08
1.38973e-08
1.39094e-08
1.39219e-08
1.3935e-08
1.39485e-08
1.39626e-08
1.39774e-08
1.3993e-08
1.40094e-08
1.40269e-08
1.40456e-08
1.4066e-08
1.40886e-08
1.41144e-08
1.41455e-08
1.41858e-08
1.42447e-08
1.43448e-08
1.45454e-08
1.50133e-08
1.62588e-08
2.00789e-08
3.44413e-08
1.10381e-07
7.2794e-07
6.7364e-06
4.39525e-05
0.000131756
0.000239565
0.000354389
0.000472242
0.000589473
0.000705673
0.000823014
0.000943346
0.00106696
0.00119362
0.00132354
0.00145716
0.00159473
0.00173645
0.00188262
0.0020337
0.00219032
0.00235329
0.00252313
0.0026997
0.00288213
0.00306908
0.00325901
0.00345045
0.00364208
0.00383279
0.00402169
0.00420804
0.00439128
0.00457096
0.00474678
0.00491847
0.00508588
0.0052489
0.00540746
0.00556154
0.00571114
0.00585628
0.005997
0.00613335
0.0062654
0.00639323
0.00651692
0.00663654
0.0067522
0.00686396
0.00697193
0.00707618
0.00717681
0.00727389
0.00736752
0.00745776
0.0075447
0.00762842
0.00770898
0.00778647
0.00786094
0.00793247
0.00800112
0.00806695
0.00813003
0.00819041
0.00824816
0.00830332
0.00835596
0.00840612
0.00845386
0.00849923
0.00854227
0.00858303
0.00862157
0.00865792
0.00869213
0.00872425
0.00875431
0.00878236
0.00880843
0.00883257
0.00885481
0.00887518
0.00889367
0.00891033
0.0089252
0.00893832
0.00894971
0.00895939
0.00896738
0.00897372
0.00897841
0.00898146
0.00898291
0.00898279
0.00898108
0.0089778
0.00897292
0.00896648
0.00895847
0.00894886
0.00893765
0.00892481
0.00891031
0.00889409
0.00887607
0.00885609
0.00883372
0.00880957
1.42569e-08
1.42753e-08
1.42947e-08
1.43153e-08
1.43373e-08
1.43607e-08
1.43859e-08
1.4413e-08
1.44426e-08
1.44751e-08
1.45111e-08
1.45516e-08
1.45977e-08
1.46511e-08
1.47142e-08
1.47901e-08
1.48841e-08
1.50043e-08
1.5165e-08
1.53933e-08
1.57443e-08
1.63405e-08
1.74789e-08
1.99661e-08
2.63425e-08
4.6573e-08
1.33248e-07
6.56491e-07
4.45848e-06
2.64571e-05
8.93072e-05
0.000178234
0.000274207
0.000372818
0.000471559
0.000569416
0.000667562
0.000767769
0.000870792
0.000976451
0.00108463
0.00119561
0.00130972
0.00142706
0.00154773
0.00167194
0.00179992
0.00193186
0.00206802
0.00220872
0.0023544
0.00250568
0.00266308
0.00282677
0.00299635
0.00317095
0.00334934
0.00353026
0.00371243
0.00389473
0.0040762
0.00425602
0.00443354
0.00460822
0.00477964
0.0049475
0.00511155
0.00527162
0.0054276
0.00557941
0.00572701
0.00587039
0.00600955
0.00614453
0.00627536
0.00640212
0.00652485
0.00664363
0.00675853
0.00686963
0.006977
0.00708073
0.00718088
0.00727754
0.00737079
0.00746069
0.00754733
0.00763078
0.0077111
0.00778836
0.00786264
0.00793399
0.00800248
0.00806818
0.00813113
0.0081914
0.00824904
0.00830411
0.00835666
0.00840675
0.00845442
0.00849972
0.00854271
0.00858343
0.00862192
0.00865823
0.0086924
0.00872449
0.00875452
0.00878254
0.00880859
0.00883271
0.00885493
0.00887528
0.00889376
0.00891041
0.00892527
0.00893838
0.00894976
0.00895943
0.00896742
0.00897375
0.00897844
0.00898149
0.00898294
0.00898282
0.00898111
0.00897783
0.00897296
0.00896652
0.00895851
0.00894891
0.0089377
0.00892487
0.00891037
0.00889416
0.00887613
0.00885615
0.00883378
0.00880963
1.49197e-08
1.49898e-08
1.50714e-08
1.51671e-08
1.52799e-08
1.54138e-08
1.55741e-08
1.57679e-08
1.60043e-08
1.62955e-08
1.66579e-08
1.71149e-08
1.77002e-08
1.84655e-08
1.94931e-08
2.0923e-08
2.30117e-08
2.62735e-08
3.18499e-08
4.26025e-08
6.68574e-08
1.3361e-07
3.65457e-07
1.36681e-06
6.13961e-06
2.54983e-05
7.42354e-05
0.000145764
0.000224942
0.000306496
0.000388642
0.000470581
0.000552878
0.000636799
0.000723134
0.000811869
0.000902792
0.000996008
0.0010918
0.00119031
0.00129157
0.00139568
0.00150283
0.00161316
0.00172681
0.00184392
0.00196468
0.00208929
0.00221795
0.00235092
0.00248855
0.0026313
0.00277965
0.00293387
0.00309381
0.00325891
0.00342822
0.00360064
0.00377504
0.0039503
0.00412547
0.00429967
0.00447221
0.00464249
0.00481003
0.00497446
0.00513549
0.0052929
0.00544652
0.00559625
0.00574201
0.00588376
0.00602148
0.00615518
0.00628489
0.00641063
0.00653247
0.00665045
0.00676464
0.0068751
0.00698191
0.00708513
0.00718483
0.00728108
0.00737396
0.00746354
0.00754989
0.00763307
0.00771316
0.00779021
0.0078643
0.00793548
0.00800382
0.00806938
0.0081322
0.00819236
0.0082499
0.00830488
0.00835735
0.00840736
0.00845497
0.00850021
0.00854314
0.00858381
0.00862226
0.00865853
0.00869267
0.00872472
0.00875472
0.00878272
0.00880875
0.00883285
0.00885505
0.00887538
0.00889385
0.00891048
0.00892533
0.00893843
0.0089498
0.00895947
0.00896745
0.00897378
0.00897846
0.00898152
0.00898297
0.00898284
0.00898114
0.00897785
0.00897299
0.00896655
0.00895854
0.00894895
0.00893775
0.00892492
0.00891042
0.00889422
0.00887619
0.00885621
0.00883384
0.00880968
2.02649e-08
2.13215e-08
2.26463e-08
2.43203e-08
2.64456e-08
2.91721e-08
3.27178e-08
3.73979e-08
4.36817e-08
5.22889e-08
6.43643e-08
8.18191e-08
1.08032e-07
1.49377e-07
2.18805e-07
3.44933e-07
5.96979e-07
1.15805e-06
2.54879e-06
6.2775e-06
1.62738e-05
3.96552e-05
8.1297e-05
0.000136837
0.000198976
0.000264044
0.000330601
0.000398047
0.000466553
0.000536764
0.000609159
0.000683748
0.000760343
0.000838951
0.000919774
0.00100296
0.00108854
0.00117654
0.00126709
0.00136031
0.00145631
0.00155517
0.00165705
0.00176207
0.00187038
0.0019821
0.00209739
0.00221643
0.00233941
0.00246654
0.00259812
0.00273451
0.00287612
0.00302325
0.00317589
0.00333366
0.00349584
0.0036615
0.00382958
0.00399906
0.00416897
0.00433845
0.00450675
0.00467325
0.00483743
0.00499888
0.00515726
0.00531231
0.00546385
0.00561173
0.00575585
0.00589613
0.00603255
0.00616509
0.00629376
0.00641858
0.0065396
0.00665685
0.00677038
0.00688026
0.00698654
0.00708928
0.00718856
0.00728444
0.00737698
0.00746625
0.00755233
0.00763526
0.00771513
0.00779198
0.00786589
0.00793691
0.0080051
0.00807052
0.00813323
0.00819328
0.00825072
0.00830561
0.00835801
0.00840795
0.00845549
0.00850067
0.00854355
0.00858417
0.00862258
0.00865881
0.00869292
0.00872494
0.00875492
0.00878289
0.00880889
0.00883297
0.00885516
0.00887547
0.00889392
0.00891055
0.00892539
0.00893848
0.00894984
0.0089595
0.00896748
0.0089738
0.00897848
0.00898153
0.00898298
0.00898285
0.00898115
0.00897787
0.008973
0.00896657
0.00895857
0.00894898
0.00893778
0.00892496
0.00891047
0.00889427
0.00887624
0.00885627
0.0088339
0.00880974
2.11985e-07
2.68503e-07
3.45797e-07
4.52111e-07
5.98537e-07
8.01066e-07
1.08252e-06
1.47548e-06
2.02759e-06
2.81052e-06
3.93656e-06
5.59058e-06
8.09051e-06
1.19954e-05
1.82759e-05
2.85008e-05
4.47995e-05
6.91579e-05
0.000102139
0.000142438
0.000188037
0.000237371
0.000289473
0.000343792
0.000400132
0.000458535
0.000519054
0.000581605
0.00064605
0.000712371
0.000780686
0.000851101
0.000923635
0.000998293
0.00107516
0.00115434
0.00123593
0.00131997
0.00140656
0.00149581
0.00158783
0.00168272
0.0017806
0.00188161
0.00198586
0.00209348
0.0022046
0.0023194
0.00243805
0.00256073
0.0026877
0.00281927
0.00295578
0.00309752
0.00324456
0.00339665
0.00355324
0.00371349
0.00387649
0.00404124
0.00420682
0.00437236
0.00453711
0.00470041
0.00486173
0.00502062
0.00517672
0.00532973
0.00547946
0.00562571
0.00576837
0.00590736
0.00604263
0.00617413
0.00630188
0.00642588
0.00654616
0.00666274
0.00677568
0.00688502
0.00699082
0.00709314
0.00719203
0.00728756
0.00737979
0.00746878
0.0075546
0.00763731
0.00771696
0.00779363
0.00786737
0.00793824
0.0080063
0.00807159
0.00813419
0.00819414
0.00825149
0.0083063
0.00835862
0.0084085
0.00845598
0.00850111
0.00854394
0.00858452
0.00862288
0.00865908
0.00869315
0.00872514
0.00875509
0.00878304
0.00880903
0.00883309
0.00885525
0.00887555
0.00889399
0.00891061
0.00892544
0.00893852
0.00894987
0.00895952
0.0089675
0.00897382
0.00897849
0.00898154
0.00898299
0.00898286
0.00898116
0.00897787
0.00897301
0.00896658
0.00895858
0.008949
0.0089378
0.00892499
0.0089105
0.00889431
0.00887629
0.00885632
0.00883395
0.00880979
1.03908e-05
1.2462e-05
1.49056e-05
1.77604e-05
2.10486e-05
2.48156e-05
2.9133e-05
3.41193e-05
3.99747e-05
4.70153e-05
5.57134e-05
6.6728e-05
8.08827e-05
9.90398e-05
0.000121866
0.000149601
0.00018201
0.000218551
0.000258607
0.000301638
0.000347259
0.00039523
0.000445389
0.000497588
0.000551695
0.000607643
0.00066544
0.000725115
0.000786674
0.000850131
0.000915545
0.000983002
0.00105256
0.00112428
0.0011982
0.00127443
0.00135305
0.00143414
0.00151778
0.00160406
0.00169311
0.00178502
0.0018799
0.00197787
0.00207904
0.00218354
0.0022915
0.00240306
0.00251839
0.00263766
0.0027611
0.00288896
0.00302155
0.00315914
0.00330185
0.00344952
0.00360167
0.00375763
0.00391651
0.00407742
0.00423944
0.00440172
0.00456351
0.00472414
0.00488305
0.00503976
0.00519391
0.00534518
0.00549333
0.00563818
0.00577959
0.00591745
0.0060517
0.0061823
0.00630923
0.0064325
0.00655211
0.00666811
0.00678051
0.00688938
0.00699474
0.00709667
0.00719521
0.00729043
0.00738237
0.00747111
0.00755669
0.00763919
0.00771866
0.00779516
0.00786874
0.00793947
0.0080074
0.00807259
0.00813508
0.00819494
0.00825221
0.00830694
0.00835919
0.00840901
0.00845643
0.00850151
0.0085443
0.00858483
0.00862316
0.00865933
0.00869337
0.00872533
0.00875526
0.00878318
0.00880915
0.00883319
0.00885534
0.00887563
0.00889405
0.00891066
0.00892548
0.00893855
0.0089499
0.00895954
0.00896751
0.00897383
0.0089785
0.00898155
0.008983
0.00898287
0.00898116
0.00897788
0.00897302
0.00896659
0.00895859
0.00894901
0.00893782
0.00892501
0.00891053
0.00889434
0.00887633
0.00885637
0.008834
0.00880984
6.09563e-05
6.49044e-05
6.91358e-05
7.36749e-05
7.85905e-05
8.4066e-05
9.03878e-05
9.79677e-05
0.000107347
0.000119157
0.000134044
0.000152556
0.000175029
0.00020151
0.000231772
0.000265413
0.000301974
0.000341052
0.000382356
0.000425701
0.000470975
0.000518095
0.000567004
0.000617653
0.000670011
0.000724075
0.000779884
0.000837495
0.00089696
0.00095832
0.00102163
0.00108696
0.00115439
0.00122396
0.00129575
0.00136983
0.0014463
0.00152522
0.00160668
0.00169079
0.00177763
0.00186731
0.00195994
0.00205563
0.00215449
0.00225663
0.00236216
0.00247125
0.00258403
0.00270067
0.00282138
0.00294637
0.00307592
0.0032103
0.00334962
0.0034938
0.00364244
0.00379495
0.00395052
0.0041083
0.0042674
0.004427
0.00458632
0.00474472
0.0049016
0.00505648
0.00520898
0.00535876
0.00550558
0.00564922
0.00578954
0.00592642
0.00605979
0.0061896
0.00631582
0.00643844
0.00655748
0.00667295
0.00678488
0.00689332
0.0069983
0.00709988
0.00719811
0.00729304
0.00738473
0.00747323
0.00755861
0.00764092
0.00772022
0.00779656
0.00787
0.00794061
0.00800842
0.0080735
0.0081359
0.00819567
0.00825287
0.00830753
0.00835972
0.00840947
0.00845685
0.00850188
0.00854463
0.00858512
0.00862342
0.00865955
0.00869357
0.0087255
0.00875541
0.00878331
0.00880926
0.00883329
0.00885542
0.00887569
0.00889411
0.0089107
0.00892552
0.00893858
0.00894992
0.00895956
0.00896753
0.00897383
0.0089785
0.00898155
0.008983
0.00898287
0.00898116
0.00897788
0.00897302
0.00896659
0.0089586
0.00894902
0.00893783
0.00892502
0.00891055
0.00889436
0.00887636
0.0088564
0.00883404
0.00880989
0.000103695
0.000106921
0.000110677
0.000115119
0.000120577
0.000127547
0.000136611
0.000148379
0.000163387
0.000181973
0.000204209
0.000229928
0.000258808
0.000290477
0.00032457
0.000360775
0.000398847
0.00043862
0.000480011
0.000523001
0.000567597
0.000613803
0.000661614
0.00071103
0.000762061
0.000814744
0.000869136
0.000925306
0.000983315
0.00104322
0.00110506
0.00116891
0.00123484
0.00130292
0.00137319
0.00144575
0.00152068
0.00159805
0.00167794
0.00176045
0.00184568
0.00193372
0.00202469
0.00211867
0.00221578
0.00231613
0.00241982
0.00252701
0.00263783
0.00275245
0.00287102
0.00299378
0.00312097
0.00325282
0.00338948
0.00353088
0.00367672
0.00382645
0.00397934
0.00413456
0.00429127
0.00444865
0.00460595
0.00476248
0.00491766
0.00507102
0.00522212
0.00537064
0.00551632
0.00565893
0.00579832
0.00593436
0.00606697
0.00619609
0.00632168
0.00644375
0.00656227
0.00667728
0.0067888
0.00689686
0.00700151
0.00710278
0.00720073
0.0072954
0.00738686
0.00747516
0.00756035
0.00764249
0.00772163
0.00779783
0.00787115
0.00794164
0.00800935
0.00807434
0.00813665
0.00819634
0.00825347
0.00830807
0.0083602
0.0084099
0.00845723
0.00850222
0.00854492
0.00858539
0.00862365
0.00865975
0.00869374
0.00872566
0.00875554
0.00878343
0.00880936
0.00883337
0.00885549
0.00887575
0.00889416
0.00891074
0.00892555
0.0089386
0.00894994
0.00895957
0.00896753
0.00897384
0.00897851
0.00898155
0.008983
0.00898286
0.00898116
0.00897788
0.00897302
0.00896659
0.0089586
0.00894902
0.00893784
0.00892503
0.00891056
0.00889438
0.00887638
0.00885643
0.00883408
0.00880993
0.000119892
0.000123365
0.000128195
0.000134863
0.000144032
0.000156294
0.000171996
0.000191219
0.000213798
0.000239378
0.000267529
0.000297868
0.000330108
0.000364052
0.000399558
0.000436517
0.000474859
0.000514561
0.000555643
0.000598153
0.000642137
0.000687625
0.000734637
0.000783195
0.000833332
0.000885102
0.000938569
0.000993801
0.00105086
0.00110981
0.00117068
0.00123355
0.00129849
0.00136554
0.00143479
0.0015063
0.00158015
0.00165643
0.00173521
0.00181658
0.00190064
0.00198749
0.00207723
0.00216994
0.00226575
0.00236474
0.00246704
0.00257277
0.00268208
0.00279512
0.00291204
0.00303305
0.00315837
0.00328823
0.00342277
0.00356197
0.00370556
0.00385304
0.00400374
0.00415688
0.00431162
0.00446717
0.00462278
0.00477776
0.00493154
0.0050836
0.00523353
0.00538099
0.0055257
0.00566744
0.00580603
0.00594135
0.00607331
0.00620183
0.00632689
0.00644846
0.00656655
0.00668116
0.00679231
0.00690004
0.00700438
0.00710538
0.00720308
0.00729753
0.00738879
0.0074769
0.00756192
0.00764391
0.00772291
0.00779899
0.00787219
0.00794258
0.00801019
0.00807509
0.00813733
0.00819695
0.00825401
0.00830856
0.00836063
0.00841029
0.00845757
0.00850252
0.00854519
0.00858562
0.00862386
0.00865994
0.0086939
0.0087258
0.00875566
0.00878353
0.00880945
0.00883344
0.00885555
0.0088758
0.0088942
0.00891077
0.00892557
0.00893862
0.00894995
0.00895958
0.00896754
0.00897384
0.0089785
0.00898155
0.00898299
0.00898286
0.00898115
0.00897787
0.00897301
0.00896659
0.0089586
0.00894902
0.00893784
0.00892504
0.00891057
0.0088944
0.0088764
0.00885646
0.00883411
0.00880996
0.000114168
0.000120446
0.000130062
0.000143544
0.000160968
0.000181881
0.00020566
0.000231796
0.000259898
0.000289638
0.000320768
0.000353146
0.000386719
0.000421474
0.000457411
0.000494525
0.000532832
0.000572369
0.0006132
0.000655393
0.000699004
0.000744069
0.000790615
0.000838677
0.000888301
0.000939547
0.00099248
0.00104717
0.00110367
0.00116204
0.00122233
0.00128459
0.00134889
0.00141529
0.00148387
0.00155469
0.00162783
0.00170336
0.00178137
0.00186195
0.00194518
0.00203117
0.00212001
0.00221179
0.00230662
0.0024046
0.00250583
0.00261046
0.0027186
0.00283041
0.00294604
0.00306567
0.00318952
0.00331779
0.00345065
0.00358807
0.00372984
0.00387549
0.00402441
0.00417583
0.00432896
0.004483
0.0046372
0.0047909
0.00494349
0.00509447
0.00524342
0.00538999
0.00553388
0.00567487
0.00581279
0.00594749
0.00607889
0.0062069
0.00633149
0.00645264
0.00657034
0.0066846
0.00679544
0.00690288
0.00700695
0.00710771
0.00720519
0.00729945
0.00739052
0.00747847
0.00756334
0.00764519
0.00772407
0.00780003
0.00787313
0.00794342
0.00801095
0.00807578
0.00813794
0.0081975
0.00825451
0.008309
0.00836103
0.00841064
0.00845788
0.0085028
0.00854544
0.00858584
0.00862405
0.0086601
0.00869405
0.00872592
0.00875577
0.00878362
0.00880952
0.00883351
0.00885561
0.00887584
0.00889423
0.0089108
0.00892559
0.00893864
0.00894996
0.00895959
0.00896754
0.00897384
0.0089785
0.00898154
0.00898299
0.00898285
0.00898114
0.00897786
0.00897301
0.00896658
0.0089586
0.00894902
0.00893784
0.00892504
0.00891058
0.00889441
0.00887642
0.00885648
0.00883413
0.00880999
9.09918e-05
0.000105714
0.000126675
0.000151843
0.000179085
0.000207343
0.000236436
0.000266433
0.000297331
0.000329056
0.000361564
0.000394883
0.000429086
0.00046425
0.000500434
0.000537681
0.000576038
0.000615571
0.000656358
0.000698475
0.000741976
0.000786898
0.000833272
0.00088114
0.000930555
0.000981578
0.00103428
0.00108871
0.00114494
0.00120302
0.00126299
0.00132492
0.00138887
0.00145489
0.00152307
0.00159346
0.00166614
0.00174119
0.00181869
0.00189872
0.00198138
0.00206676
0.00215496
0.00224606
0.00234017
0.00243739
0.00253782
0.0026416
0.00274885
0.0028597
0.00297431
0.00309286
0.00321553
0.00334254
0.00347403
0.00361002
0.00375031
0.00389448
0.00404193
0.00419194
0.00434373
0.00449651
0.00464955
0.00480217
0.00495378
0.00510386
0.00525199
0.0053978
0.005541
0.00568136
0.0058187
0.00595288
0.00608379
0.00621137
0.00633556
0.00645634
0.00657371
0.00668766
0.00679822
0.0069054
0.00700925
0.00710979
0.00720708
0.00730116
0.00739207
0.00747987
0.00756461
0.00764634
0.0077251
0.00780097
0.00787398
0.00794418
0.00801164
0.00807639
0.0081385
0.008198
0.00825495
0.00830939
0.00836138
0.00841096
0.00845816
0.00850305
0.00854566
0.00858603
0.00862422
0.00866025
0.00869418
0.00872604