/*--------------------------------*- C++ -*----------------------------------*\
| =========                 |                                                 |
| \\      /  F ield         | OpenFOAM: The Open Source CFD Toolbox           |
|  \\    /   O peration     | Version:  4.x                                   |
|   \\  /    A nd           | Web:      www.OpenFOAM.org                      |
|    \\/     M anipulation  |                                                 |
\*---------------------------------------------------------------------------*/
FoamFile
{
    version     2.0;
    format      ascii;
    class       volScalarField;
    location    "1";
    object      nuTilda;
}
// * * * * * * * * * * * * * * * * * * * * * * * * * * * * * * * * * * * * * //

dimensions      [0 2 -1 0 0 0 0];

internalField   nonuniform List<scalar> 
11990
(
1.13008e-05
1.13025e-05
1.13041e-05
1.13057e-05
1.13074e-05
1.1309e-05
1.13106e-05
1.13121e-05
1.13137e-05
1.13153e-05
1.13169e-05
1.13184e-05
1.132e-05
1.13215e-05
1.13231e-05
1.13246e-05
1.13262e-05
1.13277e-05
1.13292e-05
1.13307e-05
1.13322e-05
1.13337e-05
1.13352e-05
1.13367e-05
1.13381e-05
1.13396e-05
1.1341e-05
1.13425e-05
1.13439e-05
1.13453e-05
1.13012e-05
1.13036e-05
1.13059e-05
1.13081e-05
1.13104e-05
1.13126e-05
1.13147e-05
1.13168e-05
1.13189e-05
1.1321e-05
1.1323e-05
1.1325e-05
1.1327e-05
1.1329e-05
1.13309e-05
1.13328e-05
1.13347e-05
1.13365e-05
1.13383e-05
1.13401e-05
1.13419e-05
1.13437e-05
1.13454e-05
1.13471e-05
1.13488e-05
1.13504e-05
1.1352e-05
1.13536e-05
1.13552e-05
1.13568e-05
1.13007e-05
1.13022e-05
1.13035e-05
1.13048e-05
1.13061e-05
1.13073e-05
1.13085e-05
1.13097e-05
1.13109e-05
1.13121e-05
1.13132e-05
1.13144e-05
1.13155e-05
1.13166e-05
1.13177e-05
1.13187e-05
1.13198e-05
1.13208e-05
1.13218e-05
1.13228e-05
1.13238e-05
1.13247e-05
1.13257e-05
1.13267e-05
1.13276e-05
1.13285e-05
1.13295e-05
1.13304e-05
1.13313e-05
1.13323e-05
1.12997e-05
1.12993e-05
1.1299e-05
1.1299e-05
1.1299e-05
1.12992e-05
1.12995e-05
1.12998e-05
1.13001e-05
1.13006e-05
1.13011e-05
1.13016e-05
1.13022e-05
1.13029e-05
1.13036e-05
1.13044e-05
1.13052e-05
1.13061e-05
1.13071e-05
1.13081e-05
1.13091e-05
1.13102e-05
1.13114e-05
1.13125e-05
1.13138e-05
1.1315e-05
1.13163e-05
1.13176e-05
1.13189e-05
1.13201e-05
1.13016e-05
1.1305e-05
1.13084e-05
1.13118e-05
1.13152e-05
1.13186e-05
1.1322e-05
1.13254e-05
1.13288e-05
1.13322e-05
1.13356e-05
1.13391e-05
1.13425e-05
1.13459e-05
1.13493e-05
1.13528e-05
1.13563e-05
1.13598e-05
1.13633e-05
1.13668e-05
1.13704e-05
1.1374e-05
1.13775e-05
1.13812e-05
1.13848e-05
1.13884e-05
1.1392e-05
1.13956e-05
1.13992e-05
1.14027e-05
1.13031e-05
1.13094e-05
1.13158e-05
1.13221e-05
1.13284e-05
1.13347e-05
1.1341e-05
1.13472e-05
1.13535e-05
1.13598e-05
1.13661e-05
1.13723e-05
1.13787e-05
1.1385e-05
1.13913e-05
1.13977e-05
1.14041e-05
1.14105e-05
1.1417e-05
1.14234e-05
1.143e-05
1.14365e-05
1.1443e-05
1.14496e-05
1.14561e-05
1.14626e-05
1.14691e-05
1.14755e-05
1.14819e-05
1.14884e-05
1.13045e-05
1.13137e-05
1.13229e-05
1.13323e-05
1.13417e-05
1.13513e-05
1.13608e-05
1.13704e-05
1.13801e-05
1.13899e-05
1.13997e-05
1.14096e-05
1.14196e-05
1.14298e-05
1.144e-05
1.14503e-05
1.14607e-05
1.14712e-05
1.14818e-05
1.14925e-05
1.15031e-05
1.15137e-05
1.15241e-05
1.15344e-05
1.15446e-05
1.15545e-05
1.15646e-05
1.15757e-05
1.1589e-05
1.16082e-05
1.13071e-05
1.13215e-05
1.13364e-05
1.13515e-05
1.13668e-05
1.13824e-05
1.13982e-05
1.14141e-05
1.14303e-05
1.14467e-05
1.14634e-05
1.14803e-05
1.14976e-05
1.15152e-05
1.15331e-05
1.15513e-05
1.15698e-05
1.15885e-05
1.16075e-05
1.1627e-05
1.16474e-05
1.16695e-05
1.16946e-05
1.17252e-05
1.17647e-05
1.18186e-05
1.18942e-05
1.20019e-05
1.21533e-05
1.23643e-05
1.13121e-05
1.1337e-05
1.13628e-05
1.13894e-05
1.14167e-05
1.14447e-05
1.14734e-05
1.15029e-05
1.15333e-05
1.15647e-05
1.15973e-05
1.16312e-05
1.16668e-05
1.17046e-05
1.17454e-05
1.17907e-05
1.18432e-05
1.19072e-05
1.19897e-05
1.21012e-05
1.22568e-05
1.24773e-05
1.27901e-05
1.32299e-05
1.38383e-05
1.46624e-05
1.57515e-05
1.71482e-05
1.88736e-05
2.09231e-05
1.13219e-05
1.13682e-05
1.14176e-05
1.14702e-05
1.15258e-05
1.15844e-05
1.16463e-05
1.17123e-05
1.17836e-05
1.18621e-05
1.19512e-05
1.20559e-05
1.21847e-05
1.23512e-05
1.25762e-05
1.28903e-05
1.33366e-05
1.39717e-05
1.48662e-05
1.61017e-05
1.7766e-05
1.99432e-05
2.27056e-05
2.61019e-05
3.01506e-05
3.48316e-05
4.00871e-05
4.58071e-05
5.18535e-05
5.79515e-05
1.13454e-05
1.14472e-05
1.15618e-05
1.16885e-05
1.18274e-05
1.19817e-05
1.21579e-05
1.23674e-05
1.26282e-05
1.29686e-05
1.34318e-05
1.40808e-05
1.50027e-05
1.63076e-05
1.81227e-05
2.05766e-05
2.37812e-05
2.78092e-05
3.268e-05
3.83493e-05
4.47163e-05
5.16346e-05
5.89386e-05
6.64578e-05
7.40365e-05
8.15371e-05
8.88504e-05
9.58694e-05
0.000102547
0.000108594
1.141e-05
1.16686e-05
1.19677e-05
1.23167e-05
1.27425e-05
1.32894e-05
1.40234e-05
1.50403e-05
1.64727e-05
1.84836e-05
2.1251e-05
2.49317e-05
2.96254e-05
3.53401e-05
4.19831e-05
4.93716e-05
5.72734e-05
6.54424e-05
7.36548e-05
8.17238e-05
8.95144e-05
9.69394e-05
0.000103958
0.000110561
0.000116759
0.000122573
0.000128026
0.000133115
0.000137905
0.00014209
1.15788e-05
1.22154e-05
1.30352e-05
1.41933e-05
1.58776e-05
1.82884e-05
2.1641e-05
2.61138e-05
3.17892e-05
3.85949e-05
4.63235e-05
5.467e-05
6.33124e-05
7.1954e-05
8.03599e-05
8.83634e-05
9.58706e-05
0.000102845
0.000109294
0.000115244
0.000120734
0.000125799
0.00013048
0.000134811
0.000138829
0.00014257
0.000146066
0.000149327
0.000152473
0.000154995
1.18385e-05
1.35024e-05
1.62668e-05
2.05438e-05
2.64496e-05
3.38048e-05
4.22221e-05
5.12072e-05
6.03107e-05
6.91891e-05
7.76128e-05
8.54447e-05
9.26276e-05
9.91549e-05
0.000105056
0.000110374
0.000115166
0.000119487
0.000123398
0.000126955
0.000130211
0.000133208
0.000135982
0.000138558
0.000140957
0.000143197
0.000145295
0.00014726
0.000149075
0.000149924
1.28005e-05
1.80151e-05
2.57649e-05
3.53155e-05
4.53817e-05
5.50517e-05
6.392e-05
7.18963e-05
7.89885e-05
8.52505e-05
9.07594e-05
9.55875e-05
9.98109e-05
0.000103508
0.000106761
0.000109644
0.000112221
0.000114537
0.000116631
0.000118529
0.000120261
0.00012185
0.000123317
0.00012468
0.000125951
0.00012714
0.000128251
0.000129277
0.000129419
0.000128355
1.5646e-05
2.60195e-05
3.6036e-05
4.48893e-05
5.22119e-05
5.83847e-05
6.35109e-05
6.77795e-05
7.13962e-05
7.44924e-05
7.7164e-05
7.94727e-05
8.14729e-05
8.32018e-05
8.47063e-05
8.60221e-05
8.71903e-05
8.82324e-05
8.91728e-05
9.00194e-05
9.07895e-05
9.14887e-05
9.21328e-05
9.27257e-05
9.32791e-05
9.37916e-05
9.42599e-05
9.44477e-05
9.09537e-05
8.88464e-05
1.78667e-05
2.18104e-05
2.31079e-05
2.67938e-05
2.93482e-05
3.1801e-05
3.36117e-05
3.49917e-05
3.61315e-05
3.71055e-05
3.79528e-05
3.86888e-05
3.93319e-05
3.98904e-05
4.03788e-05
4.08049e-05
4.11817e-05
4.15142e-05
4.18118e-05
4.20761e-05
4.23146e-05
4.25276e-05
4.2722e-05
4.28976e-05
4.30608e-05
4.32113e-05
4.33426e-05
4.26459e-05
2.28137e-05
2.1496e-05
1.13464e-05
1.13472e-05
1.1348e-05
1.13488e-05
1.13497e-05
1.13506e-05
1.13515e-05
1.13524e-05
1.13534e-05
1.13544e-05
1.13554e-05
1.13564e-05
1.13575e-05
1.13586e-05
1.13597e-05
1.13608e-05
1.1362e-05
1.13632e-05
1.13644e-05
1.13657e-05
1.13669e-05
1.13682e-05
1.13696e-05
1.1371e-05
1.13724e-05
1.13738e-05
1.13753e-05
1.13768e-05
1.13783e-05
1.13799e-05
1.13815e-05
1.13832e-05
1.13849e-05
1.13866e-05
1.13884e-05
1.13902e-05
1.13921e-05
1.13944e-05
1.13981e-05
1.14072e-05
1.14413e-05
1.15908e-05
1.22759e-05
1.554e-05
2.9303e-05
7.3922e-05
0.000180546
0.000370787
0.000635129
0.000939503
0.00125134
0.00155416
0.00184425
0.00212273
0.00239111
0.0026504
0.00290115
0.00314376
0.00337852
0.00360566
0.0038254
0.00403795
0.00424352
0.0044423
0.00463448
0.00482025
0.0049998
0.00517332
0.00534098
0.00550298
0.00565947
0.00581062
0.0059566
0.00609756
0.00623366
0.00636504
0.00649186
0.00661425
0.00673234
0.00684627
0.00695615
0.0070621
0.00716423
0.00726265
0.00735747
0.00744877
0.00753666
0.00762122
0.00770254
0.0077807
0.00785577
0.00792784
0.00799698
0.00806324
0.00812671
0.00818744
0.0082455
0.00830095
0.00835383
0.00840422
0.00845216
0.00849771
0.00854092
0.00858183
0.0086205
0.00865697
0.00869129
0.0087235
0.00875365
0.00878177
0.00880792
0.00883212
0.00885442
0.00887483
0.00889336
0.00891004
0.00892494
0.00893808
0.00894949
0.00895919
0.00896721
0.00897355
0.00897824
0.00898129
0.00898274
0.00898262
0.00898092
0.00897763
0.00897275
0.0089663
0.00895829
0.00894869
0.00893747
0.00892464
0.00891014
0.00889393
0.00887591
0.00885594
0.00883358
0.00880944
1.13581e-05
1.13589e-05
1.13598e-05
1.13608e-05
1.13617e-05
1.13627e-05
1.13637e-05
1.13647e-05
1.13658e-05
1.13668e-05
1.13679e-05
1.1369e-05
1.13702e-05
1.13714e-05
1.13725e-05
1.13738e-05
1.1375e-05
1.13763e-05
1.13776e-05
1.13789e-05
1.13802e-05
1.13816e-05
1.1383e-05
1.13844e-05
1.13859e-05
1.13874e-05
1.13889e-05
1.13905e-05
1.13921e-05
1.13937e-05
1.13953e-05
1.1397e-05
1.13988e-05
1.14007e-05
1.14032e-05
1.14074e-05
1.14185e-05
1.14574e-05
1.16106e-05
1.22493e-05
1.49288e-05
2.46878e-05
5.29311e-05
0.000116763
0.000230904
0.00039584
0.000594503
0.000805689
0.00102095
0.00124439
0.00148016
0.00172615
0.00197702
0.00222807
0.00247643
0.0027205
0.00295939
0.00319257
0.00341971
0.00364064
0.00385526
0.00406356
0.00426557
0.00446135
0.00465099
0.0048346
0.0050123
0.00518424
0.00535054
0.00551136
0.00566683
0.0058171
0.00596231
0.0061026
0.00623811
0.00636899
0.00649536
0.00661736
0.0067351
0.00684872
0.00695833
0.00706404
0.00716596
0.0072642
0.00735885
0.00745001
0.00753776
0.00762221
0.00770342
0.00778149
0.00785648
0.00792848
0.00799754
0.00806375
0.00812717
0.00818785
0.00824587
0.00830127
0.00835413
0.00840449
0.0084524
0.00849792
0.00854111
0.008582
0.00862065
0.00865711
0.00869141
0.00872361
0.00875375
0.00878186
0.008808
0.0088322
0.00885448
0.00887489
0.00889342
0.0089101
0.008925
0.00893814
0.00894955
0.00895924
0.00896725
0.00897359
0.00897828
0.00898133
0.00898277
0.00898265
0.00898095
0.00897766
0.00897278
0.00896633
0.00895832
0.00894871
0.00893749
0.00892466
0.00891016
0.00889395
0.00887593
0.00885596
0.0088336
0.00880946
1.1333e-05
1.13336e-05
1.13342e-05
1.13348e-05
1.13355e-05
1.13362e-05
1.13369e-05
1.13377e-05
1.13384e-05
1.13392e-05
1.13401e-05
1.13409e-05
1.13418e-05
1.13427e-05
1.13436e-05
1.13445e-05
1.13455e-05
1.13465e-05
1.13475e-05
1.13486e-05
1.13497e-05
1.13508e-05
1.1352e-05
1.13532e-05
1.13544e-05
1.13556e-05
1.1357e-05
1.13583e-05
1.13598e-05
1.13614e-05
1.13635e-05
1.1367e-05
1.13749e-05
1.13988e-05
1.148e-05
1.17722e-05
1.28726e-05
1.67969e-05
2.87637e-05
5.84604e-05
0.000118092
0.00021622
0.000351137
0.000510364
0.000678562
0.000847237
0.00101676
0.00119039
0.00136987
0.00155641
0.00175171
0.00195659
0.00216987
0.00238892
0.0026109
0.00283343
0.00305469
0.00327339
0.00348856
0.00369954
0.00390584
0.00410715
0.00430326
0.00449403
0.00467941
0.00485937
0.00503395
0.00520319
0.00536717
0.00552598
0.0056797
0.00582845
0.00597233
0.00611146
0.00624596
0.00637595
0.00650154
0.00662284
0.00673998
0.00685307
0.0069622
0.00706749
0.00716904
0.00726695
0.00736131
0.0074522
0.00753973
0.00762396
0.00770499
0.0077829
0.00785774
0.0079296
0.00799855
0.00806466
0.00812798
0.00818858
0.00824652
0.00830186
0.00835465
0.00840495
0.00845282
0.0084983
0.00854144
0.0085823
0.00862092
0.00865734
0.00869162
0.0087238
0.00875391
0.00878201
0.00880813
0.00883231
0.00885459
0.00887498
0.0088935
0.00891018
0.00892507
0.0089382
0.00894961
0.0089593
0.00896731
0.00897365
0.00897833
0.00898139
0.00898284
0.00898271
0.00898101
0.00897771
0.00897283
0.00896638
0.00895836
0.00894876
0.00893754
0.00892471
0.0089102
0.008894
0.00887597
0.008856
0.00883364
0.00880949
1.13212e-05
1.13219e-05
1.13227e-05
1.13236e-05
1.13246e-05
1.13257e-05
1.13268e-05
1.13279e-05
1.13291e-05
1.13304e-05
1.13317e-05
1.13331e-05
1.13345e-05
1.13359e-05
1.13374e-05
1.1339e-05
1.13406e-05
1.13422e-05
1.1344e-05
1.13458e-05
1.13476e-05
1.13496e-05
1.13516e-05
1.13538e-05
1.13562e-05
1.13589e-05
1.13623e-05
1.13675e-05
1.13776e-05
1.14019e-05
1.14708e-05
1.16842e-05
1.23806e-05
1.46425e-05
2.13366e-05
3.82648e-05
7.39767e-05
0.000136871
0.000230383
0.000349791
0.000484176
0.000622868
0.000761085
0.000899953
0.0010421
0.00118849
0.00133899
0.00149383
0.00165358
0.00181894
0.00199093
0.00217053
0.00235796
0.00255232
0.00275189
0.00295473
0.003159
0.00336316
0.00356595
0.00376638
0.00396371
0.00415736
0.00434693
0.00453209
0.00471266
0.00488847
0.00505947
0.00522561
0.0053869
0.00554337
0.00569505
0.00584202
0.00598435
0.00612211
0.00625541
0.00638434
0.006509
0.00662948
0.0067459
0.00685834
0.00696691
0.0070717
0.0071728
0.0072703
0.00736431
0.00745489
0.00754213
0.00762611
0.00770692
0.00778462
0.00785929
0.00793099
0.00799979
0.00806577
0.00812897
0.00818947
0.00824731
0.00830257
0.00835529
0.00840552
0.00845333
0.00849875
0.00854185
0.00858266
0.00862124
0.00865763
0.00869188
0.00872402
0.00875411
0.00878219
0.00880829
0.00883245
0.0088547
0.00887509
0.00889359
0.00891026
0.00892515
0.00893827
0.00894967
0.00895935
0.00896736
0.00897369
0.00897838
0.00898144
0.00898289
0.00898276
0.00898106
0.00897777
0.00897289
0.00896644
0.00895843
0.00894882
0.0089376
0.00892476
0.00891026
0.00889405
0.00887602
0.00885605
0.00883368
0.00880954
1.14053e-05
1.14072e-05
1.14092e-05
1.14112e-05
1.14134e-05
1.14156e-05
1.14179e-05
1.14203e-05
1.14228e-05
1.14254e-05
1.1428e-05
1.14308e-05
1.14337e-05
1.14367e-05
1.14399e-05
1.14433e-05
1.14468e-05
1.14507e-05
1.14548e-05
1.14594e-05
1.14647e-05
1.1471e-05
1.14792e-05
1.14911e-05
1.15112e-05
1.15513e-05
1.1643e-05
1.18773e-05
1.25207e-05
1.43306e-05
1.91895e-05
3.08928e-05
5.5336e-05
9.91314e-05
0.000166606
0.000256857
0.000363419
0.000477545
0.000592931
0.000708103
0.000824807
0.000944714
0.00106803
0.00119447
0.00132423
0.00145773
0.00159521
0.00173685
0.00188297
0.00203399
0.00219058
0.00235351
0.00252332
0.00269987
0.00288228
0.00306921
0.00325912
0.00345055
0.00364217
0.00383288
0.00402176
0.00420811
0.00439134
0.00457102
0.00474683
0.00491852
0.00508593
0.00524894
0.0054075
0.00556158
0.00571118
0.00585632
0.00599703
0.00613338
0.00626543
0.00639326
0.00651695
0.00663657
0.00675222
0.00686399
0.00697195
0.00707621
0.00717683
0.00727392
0.00736754
0.00745778
0.00754472
0.00762844
0.007709
0.00778649
0.00786096
0.00793249
0.00800114
0.00806697
0.00813005
0.00819043
0.00824818
0.00830334
0.00835598
0.00840614
0.00845388
0.00849924
0.00854228
0.00858305
0.00862158
0.00865793
0.00869215
0.00872426
0.00875432
0.00878237
0.00880845
0.00883259
0.00885483
0.00887519
0.00889369
0.00891035
0.00892522
0.00893834
0.00894972
0.0089594
0.0089674
0.00897373
0.00897842
0.00898148
0.00898293
0.0089828
0.0089811
0.00897781
0.00897294
0.00896649
0.00895848
0.00894888
0.00893766
0.00892483
0.00891032
0.00889411
0.00887608
0.00885611
0.00883374
0.00880959
1.14935e-05
1.14972e-05
1.15012e-05
1.15053e-05
1.15097e-05
1.15144e-05
1.15195e-05
1.15249e-05
1.15308e-05
1.15373e-05
1.15445e-05
1.15526e-05
1.15617e-05
1.15723e-05
1.15848e-05
1.15997e-05
1.16181e-05
1.16415e-05
1.16727e-05
1.17165e-05
1.17828e-05
1.1893e-05
1.20953e-05
1.25047e-05
1.34026e-05
1.5457e-05
2.01176e-05
3.0084e-05
4.94524e-05
8.29846e-05
0.000134324
0.000203923
0.00028821
0.000381057
0.000476876
0.000573114
0.000670273
0.000769826
0.000872396
0.000977728
0.00108566
0.00119647
0.00131043
0.00142766
0.00154824
0.00167237
0.00180029
0.00193219
0.00206831
0.00220897
0.00235462
0.00250587
0.00266325
0.00282692
0.00299649
0.00317107
0.00334945
0.00353035
0.00371252
0.00389481
0.00407627
0.00425609
0.0044336
0.00460827
0.0047797
0.00494755
0.0051116
0.00527167
0.00542764
0.00557945
0.00572705
0.00587042
0.00600958
0.00614456
0.0062754
0.00640215
0.00652488
0.00664366
0.00675856
0.00686966
0.00697703
0.00708075
0.0071809
0.00727756
0.00737081
0.00746071
0.00754735
0.0076308
0.00771112
0.00778838
0.00786266
0.00793401
0.0080025
0.0080682
0.00813115
0.00819142
0.00824906
0.00830413
0.00835668
0.00840677
0.00845444
0.00849974
0.00854273
0.00858344
0.00862193
0.00865824
0.00869242
0.0087245
0.00875454
0.00878256
0.00880861
0.00883273
0.00885495
0.0088753
0.00889378
0.00891043
0.00892529
0.00893839
0.00894977
0.00895945
0.00896744
0.00897377
0.00897845
0.00898151
0.00898296
0.00898283
0.00898113
0.00897784
0.00897297
0.00896653
0.00895853
0.00894893
0.00893772
0.00892489
0.00891038
0.00889417
0.00887614
0.00885617
0.0088338
0.00880964
1.1625e-05
1.16387e-05
1.16546e-05
1.16731e-05
1.16948e-05
1.17205e-05
1.1751e-05
1.17875e-05
1.18316e-05
1.18853e-05
1.1951e-05
1.20324e-05
1.21343e-05
1.22637e-05
1.24312e-05
1.26536e-05
1.29589e-05
1.33967e-05
1.40589e-05
1.51225e-05
1.69318e-05
2.01455e-05
2.59544e-05
3.63057e-05
5.39436e-05
8.19949e-05
0.000122978
0.000177563
0.000243886
0.000318129
0.000396276
0.000475918
0.000556794
0.000639772
0.000725449
0.000813711
0.000904285
0.000997236
0.00109282
0.00119117
0.0012923
0.00139631
0.00150337
0.00161363
0.00172722
0.00184428
0.001965
0.00208957
0.0022182
0.00235114
0.00248874
0.00263148
0.00277981
0.00293401
0.00309394
0.00325902
0.00342832
0.00360074
0.00377512
0.00395038
0.00412554
0.00429974
0.00447227
0.00464255
0.00481008
0.00497451
0.00513554
0.00529294
0.00544656
0.00559629
0.00574205
0.0058838
0.00602152
0.00615521
0.00628492
0.00641066
0.0065325
0.00665048
0.00676467
0.00687513
0.00698193
0.00708515
0.00718485
0.00728111
0.00737399
0.00746357
0.00754991
0.0076331
0.00771318
0.00779024
0.00786432
0.0079355
0.00800384
0.00806939
0.00813222
0.00819238
0.00824992
0.0083049
0.00835737
0.00840738
0.00845498
0.00850023
0.00854316
0.00858383
0.00862227
0.00865854
0.00869268
0.00872474
0.00875474
0.00878274
0.00880877
0.00883286
0.00885507
0.0088754
0.00889386
0.0089105
0.00892535
0.00893845
0.00894982
0.00895948
0.00896747
0.00897379
0.00897848
0.00898153
0.00898298
0.00898285
0.00898115
0.00897787
0.008973
0.00896656
0.00895856
0.00894897
0.00893776
0.00892493
0.00891044
0.00889423
0.00887621
0.00885623
0.00883385
0.0088097
1.25548e-05
1.27163e-05
1.29105e-05
1.3144e-05
1.34236e-05
1.37586e-05
1.41607e-05
1.46439e-05
1.52258e-05
1.59286e-05
1.67811e-05
1.78227e-05
1.91104e-05
2.07307e-05
2.28189e-05
2.55924e-05
2.9403e-05
3.48144e-05
4.26977e-05
5.43123e-05
7.12974e-05
9.54668e-05
0.000128346
0.000170558
0.000221388
0.000278914
0.000340807
0.000405351
0.000471976
0.00054091
0.000612402
0.000686333
0.000762441
0.000840677
0.000921212
0.00100418
0.00108957
0.00117742
0.00126785
0.00136097
0.00145688
0.00155568
0.00165749
0.00176247
0.00187073
0.00198241
0.00209767
0.00221668
0.00233963
0.00246674
0.0025983
0.00273467
0.00287627
0.00302338
0.00317601
0.00333377
0.00349594
0.00366159
0.00382966
0.00399913
0.00416904
0.00433851
0.00450681
0.00467331
0.00483749
0.00499893
0.0051573
0.00531236
0.00546389
0.00561177
0.00575588
0.00589616
0.00603258
0.00616512
0.00629379
0.00641861
0.00653963
0.00665688
0.00677041
0.00688028
0.00698656
0.00708931
0.00718858
0.00728446
0.007377
0.00746627
0.00755235
0.00763528
0.00771515
0.007792
0.00786591
0.00793693
0.00800512
0.00807054
0.00813325
0.0081933
0.00825074
0.00830563
0.00835802
0.00840797
0.0084555
0.00850069
0.00854357
0.00858419
0.0086226
0.00865883
0.00869294
0.00872496
0.00875493
0.0087829
0.00880891
0.00883299
0.00885517
0.00887549
0.00889394
0.00891057
0.00892541
0.00893849
0.00894985
0.00895951
0.00896749
0.00897382
0.00897849
0.00898155
0.008983
0.00898287
0.00898116
0.00897788
0.00897302
0.00896658
0.00895858
0.00894899
0.00893779
0.00892497
0.00891048
0.00889428
0.00887626
0.00885629
0.00883391
0.00880975
2.26628e-05
2.40549e-05
2.56419e-05
2.74409e-05
2.94639e-05
3.17304e-05
3.42653e-05
3.70986e-05
4.02733e-05
4.38527e-05
4.79331e-05
5.26669e-05
5.82948e-05
6.51862e-05
7.38835e-05
8.51347e-05
9.98854e-05
0.000119189
0.000144016
0.000174985
0.000212141
0.000254903
0.000302287
0.00035332
0.000407366
0.00046414
0.000523477
0.000585153
0.000648939
0.000714756
0.000782677
0.000852779
0.000925061
0.000999515
0.00107621
0.00115526
0.00123672
0.00132067
0.00140717
0.00149635
0.00158831
0.00168315
0.00178099
0.00188196
0.00198617
0.00209375
0.00220486
0.00231963
0.00243825
0.00256092
0.00268787
0.00281942
0.00295592
0.00309764
0.00324467
0.00339676
0.00355333
0.00371358
0.00387657
0.00404132
0.00420689
0.00437242
0.00453717
0.00470047
0.00486179
0.00502067
0.00517676
0.00532978
0.0054795
0.00562575
0.00576841
0.0059074
0.00604266
0.00617417
0.00630191
0.00642591
0.00654618
0.00666277
0.00677571
0.00688505
0.00699085
0.00709316
0.00719205
0.00728758
0.00737981
0.0074688
0.00755462
0.00763733
0.00771698
0.00779365
0.00786739
0.00793826
0.00800631
0.00807161
0.00813421
0.00819416
0.00825151
0.00830632
0.00835864
0.00840851
0.00845599
0.00850113
0.00854396
0.00858453
0.0086229
0.0086591
0.00869317
0.00872516
0.00875511
0.00878306
0.00880904
0.0088331
0.00885527
0.00887557
0.00889401
0.00891062
0.00892545
0.00893853
0.00894989
0.00895954
0.00896751
0.00897383
0.00897851
0.00898156
0.00898301
0.00898288
0.00898117
0.00897789
0.00897303
0.0089666
0.0089586
0.00894901
0.00893782
0.008925
0.00891052
0.00889432
0.00887631
0.00885634
0.00883397
0.00880981
6.26e-05
6.59646e-05
6.95319e-05
7.33003e-05
7.72548e-05
8.14145e-05
8.58262e-05
9.0577e-05
9.58182e-05
0.000101782
0.000108808
0.000117369
0.000128084
0.000141697
0.000158995
0.000180656
0.000207087
0.00023831
0.00027399
0.000313603
0.000356624
0.000402634
0.000451312
0.000502385
0.000555627
0.000610901
0.000668167
0.000727418
0.000788635
0.000851812
0.000916996
0.000984262
0.00105366
0.00112524
0.00119905
0.00127518
0.00135372
0.00143473
0.00151831
0.00160454
0.00169354
0.0017854
0.00188024
0.00197818
0.00207933
0.0021838
0.00229173
0.00240327
0.00251858
0.00263784
0.00276126
0.0028891
0.00302168
0.00315927
0.00330197
0.00344962
0.00360177
0.00375771
0.00391659
0.0040775
0.00423951
0.00440179
0.00456357
0.0047242
0.0048831
0.00503981
0.00519396
0.00534522
0.00549337
0.00563822
0.00577963
0.00591748
0.00605173
0.00618233
0.00630926
0.00643253
0.00655214
0.00666813
0.00678054
0.0068894
0.00699477
0.0070967
0.00719524
0.00729045
0.00738239
0.00747113
0.00755672
0.00763921
0.00771868
0.00779518
0.00786876
0.00793949
0.00800742
0.00807261
0.0081351
0.00819496
0.00825223
0.00830696
0.00835921
0.00840902
0.00845645
0.00850153
0.00854432
0.00858485
0.00862318
0.00865934
0.00869338
0.00872535
0.00875527
0.0087832
0.00880917
0.00883321
0.00885536
0.00887564
0.00889407
0.00891067
0.0089255
0.00893857
0.00894991
0.00895956
0.00896753
0.00897384
0.00897852
0.00898156
0.00898301
0.00898288
0.00898118
0.00897789
0.00897303
0.0089666
0.00895861
0.00894902
0.00893783
0.00892502
0.00891054
0.00889435
0.00887634
0.00885638
0.00883402
0.00880986
0.000112931
0.000115984
0.000119223
0.00012267
0.00012638
0.000130495
0.000135233
0.000140915
0.000147972
0.000156941
0.000168422
0.00018303
0.000201299
0.000223574
0.000249932
0.000280172
0.000313913
0.000350721
0.000390226
0.000432152
0.000476304
0.000522535
0.000570732
0.000620809
0.000672701
0.000726385
0.000781878
0.000839227
0.000898472
0.000959645
0.0010228
0.00108799
0.0011553
0.00122477
0.00129647
0.00137048
0.00144688
0.00152575
0.00160716
0.00169121
0.00177801
0.00186766
0.00196026
0.00205592
0.00215475
0.00225686
0.00236238
0.00247145
0.00258421
0.00270084
0.00282153
0.00294651
0.00307605
0.00321042
0.00334973
0.0034939
0.00364254
0.00379503
0.0039506
0.00410837
0.00426747
0.00442706
0.00458638
0.00474477
0.00490165
0.00505653
0.00520903
0.00535881
0.00550562
0.00564926
0.00578958
0.00592646
0.00605982
0.00618963
0.00631585
0.00643847
0.0065575
0.00667297
0.00678491
0.00689334
0.00699833
0.00709991
0.00719813
0.00729306
0.00738475
0.00747325
0.00755863
0.00764094
0.00772024
0.00779658
0.00787002
0.00794063
0.00800844
0.00807352
0.00813592
0.00819569
0.00825289
0.00830755
0.00835974
0.00840949
0.00845686
0.0085019
0.00854464
0.00858514
0.00862343
0.00865957
0.00869358
0.00872552
0.00875542
0.00878333
0.00880928
0.0088333
0.00885544
0.00887571
0.00889412
0.00891072
0.00892553
0.00893859
0.00894993
0.00895958
0.00896754
0.00897385
0.00897852
0.00898157
0.00898301
0.00898288
0.00898118
0.00897789
0.00897303
0.00896661
0.00895861
0.00894903
0.00893785
0.00892504
0.00891056
0.00889438
0.00887637
0.00885642
0.00883406
0.0088099
0.000145205
0.00014764
0.000150482
0.000153856
0.000158024
0.000163385
0.000170427
0.0001797
0.000191759
0.000207064
0.000225892
0.000248305
0.00027417
0.000303219
0.000335115
0.000369518
0.000406128
0.000444718
0.000485151
0.000527361
0.000571318
0.000616998
0.000664372
0.000713423
0.000764149
0.000816574
0.000870746
0.000926727
0.000984575
0.00104434
0.00110606
0.00116981
0.00123564
0.00130363
0.00137384
0.00144634
0.00152121
0.00159853
0.00167838
0.00176085
0.00184604
0.00193405
0.00202499
0.00211894
0.00221603
0.00231635
0.00242003
0.0025272
0.00263801
0.00275261
0.00287117
0.00299392
0.00312109
0.00325293
0.00338958
0.00353098
0.00367681
0.00382653
0.00397942
0.00413463
0.00429134
0.00444872
0.004606
0.00476253
0.00491772
0.00507106
0.00522216
0.00537069
0.00551636
0.00565897
0.00579836
0.00593439
0.006067
0.00619612
0.00632172
0.00644378
0.0065623
0.00667731
0.00678883
0.00689689
0.00700153
0.0071028
0.00720075
0.00729543
0.00738689
0.00747518
0.00756037
0.00764251
0.00772165
0.00779785
0.00787117
0.00794166
0.00800937
0.00807435
0.00813667
0.00819636
0.00825349
0.00830809
0.00836022
0.00840992
0.00845724
0.00850224
0.00854494
0.0085854
0.00862366
0.00865977
0.00869376
0.00872567
0.00875556
0.00878344
0.00880937
0.00883338
0.00885551
0.00887577
0.00889417
0.00891076
0.00892556
0.00893862
0.00894995
0.00895959
0.00896755
0.00897385
0.00897852
0.00898157
0.00898301
0.00898288
0.00898117
0.00897789
0.00897303
0.00896661
0.00895861
0.00894904
0.00893785
0.00892505
0.00891058
0.0088944
0.0088764
0.00885645
0.00883409
0.00880994
0.00015748
0.000160146
0.000163869
0.000169048
0.000176248
0.000186023
0.000198796
0.000214823
0.000234168
0.00025669
0.000282104
0.000310086
0.000340346
0.000372653
0.000406813
0.000442669
0.000480106
0.00051906
0.000559522
0.000601513
0.000645061
0.000690182
0.000736882
0.000785173
0.000835082
0.000886654
0.00093995
0.000995035
0.00105197
0.0011108
0.00117157
0.00123436
0.00129921
0.0013662
0.00143538
0.00150684
0.00158064
0.00165688
0.00173562
0.00181695
0.00190098
0.0019878
0.00207751
0.0021702
0.00226598
0.00236496
0.00246724
0.00257296
0.00268225
0.00279528
0.00291219
0.00303318
0.00315849
0.00328834
0.00342288
0.00356207
0.00370565
0.00385312
0.00400382
0.00415695
0.00431169
0.00446724
0.00462284
0.00477782
0.00493159
0.00508365
0.00523358
0.00538104
0.00552574
0.00566748
0.00580607
0.00594139
0.00607334
0.00620186
0.00632692
0.00644849
0.00656658
0.00668118
0.00679234
0.00690007
0.00700441
0.00710541
0.00720311
0.00729756
0.00738881
0.00747692
0.00756194
0.00764393
0.00772293
0.00779901
0.00787221
0.00794259
0.00801021
0.00807511
0.00813735
0.00819697
0.00825403
0.00830857
0.00836065
0.00841031
0.00845759
0.00850254
0.00854521
0.00858564
0.00862387
0.00865995
0.00869392
0.00872581
0.00875568
0.00878355
0.00880946
0.00883346
0.00885557
0.00887582
0.00889421
0.00891079
0.00892559
0.00893864
0.00894996
0.0089596
0.00896755
0.00897385
0.00897852
0.00898156
0.00898301
0.00898287
0.00898117
0.00897789
0.00897303
0.0089666
0.00895861
0.00894904
0.00893786
0.00892506
0.00891059
0.00889441
0.00887642
0.00885647
0.00883412
0.00880998
0.000153093
0.00015789
0.000165301
0.00017585
0.000189785
0.000206979
0.000227131
0.00024995
0.000275153
0.000302439
0.000331531
0.000362231
0.000394424
0.000428044
0.000463043
0.00049938
0.000537038
0.00057603
0.000616401
0.000658203
0.00070148
0.000746257
0.000792556
0.000840404
0.000889842
0.000940926
0.000993717
0.00104828
0.00110467
0.00116294
0.00122314
0.00128533
0.00134956
0.0014159
0.00148442
0.00155519
0.00162829
0.00170378
0.00178176
0.0018623
0.0019455
0.00203146
0.00212028
0.00221204
0.00230685
0.00240481
0.00250603
0.00261064
0.00271877
0.00283057
0.00294618
0.0030658
0.00318964
0.0033179
0.00345075
0.00358816
0.00372992
0.00387558
0.00402449
0.0041759
0.00432902
0.00448306
0.00463726
0.00479095
0.00494354
0.00509452
0.00524347
0.00539003
0.00553392
0.00567491
0.00581283
0.00594753
0.00607892
0.00620693
0.00633153
0.00645267
0.00657037
0.00668463
0.00679546
0.0069029
0.00700698
0.00710774
0.00720522
0.00729947
0.00739054
0.00747849
0.00756336
0.00764521
0.00772409
0.00780005
0.00787315
0.00794344
0.00801097
0.0080758
0.00813796
0.00819752
0.00825452
0.00830901
0.00836104
0.00841066
0.0084579
0.00850282
0.00854546
0.00858586
0.00862406
0.00866012
0.00869406
0.00872594
0.00875578
0.00878364
0.00880954
0.00883352
0.00885562
0.00887586
0.00889425
0.00891082
0.00892561
0.00893865
0.00894997
0.0089596
0.00896755
0.00897385
0.00897852
0.00898156
0.008983
0.00898287
0.00898116
0.00897788
0.00897302
0.0089666
0.00895861
0.00894904
0.00893786
0.00892506
0.0089106
0.00889443
0.00887643
0.00885649
0.00883415
0.00881001
0.000135552
0.000146667
0.000162668
0.000182433
0.000204644
0.000228577
0.000254065
0.000281097
0.00030958
0.00033935
0.000370272
0.000402298
0.000435439
0.000469726
0.000505179
0.000541814
0.000579654
0.000618748
0.00065916
0.000700954
0.000744177
0.000788857
0.000835022
0.000882706
0.00093196
0.000982842
0.00103541
0.00108974
0.00114587
0.00120386
0.00126376
0.00132562
0.0013895
0.00145547
0.00152359
0.00159394
0.00166658
0.00174159
0.00181906
0.00189906
0.00198169
0.00206705
0.00215522
0.0022463
0.00234039
0.00243759
0.00253801
0.00264178
0.00274901
0.00285985
0.00297445
0.00309298
0.00321565
0.00334265
0.00347414
0.00361012
0.0037504
0.00389456
0.004042
0.00419201
0.00434379
0.00449657
0.00464961
0.00480223
0.00495383
0.00510391
0.00525203
0.00539784
0.00554104
0.0056814
0.00581874
0.00595291
0.00608382
0.0062114
0.00633559
0.00645637
0.00657374
0.00668769
0.00679824
0.00690543
0.00700927
0.00710982
0.0072071
0.00730118
0.00739209
0.00747989
0.00756463
0.00764636
0.00772512
0.00780099
0.007874
0.0079442
0.00801166
0.00807641
0.00813852
0.00819802
0.00825497
0.00830941
0.0083614
0.00841097
0.00845818
0.00850307
0.00854568
0.00858605
0.00862423
0.00866027
0.00869419
0.00872605
0.00875588