/*--------------------------------*- C++ -*----------------------------------*\
| =========                 |                                                 |
| \\      /  F ield         | OpenFOAM: The Open Source CFD Toolbox           |
|  \\    /   O peration     | Version:  4.x                                   |
|   \\  /    A nd           | Web:      www.OpenFOAM.org                      |
|    \\/     M anipulation  |                                                 |
\*---------------------------------------------------------------------------*/
FoamFile
{
    version     2.0;
    format      ascii;
    class       volScalarField;
    location    "1";
    object      p;
}
// * * * * * * * * * * * * * * * * * * * * * * * * * * * * * * * * * * * * * //

dimensions      [0 2 -2 0 0 0 0];

internalField   nonuniform List<scalar> 
11990
(
2.29991
2.02342
1.71317
1.47959
1.32135
1.20843
1.12121
1.05385
1.0024
0.959991
0.920855
0.882286
0.843121
0.802315
0.759168
0.713355
0.664952
0.614077
0.560984
0.505889
0.449112
0.390942
0.331816
0.272277
0.213268
0.156257
0.103789
0.0596706
0.0294683
0.0181111
2.30082
2.02487
1.71073
1.4745
1.31695
1.20537
1.11896
1.05234
1.00158
0.959625
0.92076
0.88237
0.843333
0.802587
0.75947
0.713653
0.665246
0.614346
0.561235
0.506108
0.449303
0.391082
0.331893
0.272237
0.213044
0.155715
0.102774
0.0580096
0.0272246
0.0157427
2.30459
2.02766
1.70528
1.46431
1.30835
1.1993
1.11447
1.04933
0.999924
0.958835
0.920486
0.882459
0.843666
0.803049
0.759984
0.714176
0.66575
0.614816
0.561661
0.506484
0.449617
0.391313
0.331997
0.272133
0.212588
0.154667
0.100798
0.0547675
0.0227871
0.011014
2.31268
2.03198
1.69741
1.4507
1.29727
1.19144
1.1087
1.04558
0.997946
0.957941
0.920257
0.882682
0.8442
0.803726
0.760731
0.714912
0.666468
0.615472
0.562268
0.507011
0.450072
0.391648
0.33218
0.272044
0.212062
0.15337
0.098288
0.0505003
0.0167747
0.00440961
2.32502
2.03703
1.68662
1.43418
1.28429
1.1821
1.10186
1.04124
0.995653
0.956869
0.919947
0.882906
0.844773
0.804474
0.76155
0.715734
0.667259
0.616204
0.562938
0.507603
0.450576
0.392031
0.33239
0.271967
0.211499
0.151952
0.0954508
0.0455318
0.00950255
-0.00388869
2.34235
2.0429
1.67327
1.41585
1.27037
1.17193
1.09454
1.03677
0.993367
0.955831
0.919726
0.883237
0.845472
0.805333
0.762487
0.71665
0.668146
0.61701
0.563683
0.508249
0.45114
0.392455
0.33265
0.271926
0.210976
0.150534
0.0925194
0.0401564
0.00126541
-0.0137632
2.36434
2.04874
1.65717
1.39623
1.25586
1.16114
1.08692
1.03228
0.991087
0.954792
0.919525
0.883607
0.846201
0.806235
0.763454
0.717609
0.66906
0.617855
0.564454
0.508934
0.451728
0.392917
0.332937
0.271935
0.210509
0.149199
0.089621
0.0346192
-0.00771228
-0.0251607
2.39119
2.0539
1.6385
1.37602
1.24111
1.15001
1.07931
1.02792
0.988916
0.953808
0.919395
0.884018
0.84697
0.807147
0.764435
0.718556
0.669971
0.618679
0.565217
0.509602
0.45232
0.39338
0.333253
0.27198
0.210123
0.147978
0.0868745
0.0290947
-0.0172568
-0.0380947
2.42349
2.05772
1.61766
1.35583
1.22638
1.1388
1.07192
1.02383
0.986909
0.952923
0.91935
0.884501
0.847786
0.808116
0.765447
0.719556
0.670903
0.619541
0.565983
0.510286
0.452897
0.393855
0.333576
0.272087
0.209833
0.146953
0.0843775
0.0238091
-0.0271371
-0.0525213
2.46155
2.05915
1.59504
1.33606
1.21174
1.12763
1.06485
1.01999
0.98504
0.952069
0.91932
0.884935
0.848546
0.808996
0.766381
0.720467
0.671776
0.620355
0.566735
0.510958
0.453476
0.394312
0.333884
0.272175
0.209573
0.146033
0.0821233
0.0188314
-0.0372345
-0.0684452
2.50612
2.0573
1.57131
1.31718
1.19745
1.11682
1.0583
1.01653
0.983442
0.951411
0.919451
0.885493
0.84939
0.809956
0.767333
0.721387
0.672578
0.621108
0.567394
0.51161
0.454059
0.394882
0.334346
0.272526
0.209632
0.145579
0.0804723
0.0146912
-0.0468522
-0.085185
2.55784
2.05139
1.54696
1.29913
1.18348
1.10645
1.05219
1.01323
0.981877
0.950673
0.919497
0.885905
0.85012
0.810835
0.768305
0.722411
0.673562
0.622063
0.568235
0.512367
0.454636
0.395266
0.334396
0.27217
0.208694
0.143887
0.0775474
0.00953381
-0.0573479
-0.103711
2.61725
2.0419
1.52361
1.28245
1.17029
1.09712
1.04709
1.01064
0.980779
0.950277
0.919802
0.886486
0.850876
0.811548
0.768839
0.722703
0.673447
0.621539
0.567185
0.510911
0.45279
0.393248
0.332269
0.270099
0.206643
0.141814
0.0750376
0.00571641
-0.065755
-0.120744
2.68156
2.02832
1.50247
1.26767
1.15799
1.0885
1.04246
1.00817
0.979518
0.949277
0.919036
0.885457
0.849539
0.809754
0.766634
0.720276
0.670934
0.619208
0.565076
0.509163
0.451305
0.392056
0.331221
0.269182
0.205702
0.140774
0.0735749
0.0032252
-0.0725431
-0.136867
2.75054
2.01382
1.48619
1.25753
1.14917
1.0818
1.0379
1.00445
0.976038
0.945705
0.915583
0.882169
0.846639
0.807307
0.764658
0.718727
0.669699
0.618226
0.564234
0.508437
0.450619
0.391415
0.330579
0.268552
0.205037
0.140046
0.072599
0.00172651
-0.0775318
-0.152644
2.81119
1.99433
1.46761
1.24604
1.14034
1.07518
1.03298
1.00043
0.972635
0.942928
0.913439
0.880595
0.845503
0.806494
0.764045
0.718238
0.669277
0.617853
0.563899
0.508139
0.450349
0.39117
0.330349
0.268328
0.204805
0.139783
0.0722178
0.00128218
-0.0800147
-0.170378
2.88624
2.00464
1.46584
1.243
1.13733
1.07298
1.03161
0.999683
0.972204
0.942775
0.913386
0.880654
0.845584
0.806611
0.764169
0.718363
0.669404
0.617968
0.564016
0.508242
0.450455
0.391261
0.330437
0.2684
0.204869
0.139826
0.0722483
0.00142087
-0.079989
-0.184491
0.0268789
0.0400355
0.0525013
0.0625802
0.0706997
0.0773357
0.0828811
0.0875146
0.0912751
0.0943898
0.0972001
0.0998787
0.102429
0.104834
0.107099
0.109266
0.111391
0.11359
0.115968
0.118577
0.121398
0.124317
0.127162
0.129735
0.131975
0.133946
0.135819
0.137566
0.139182
0.140837
0.142671
0.144493
0.14621
0.148127
0.150276
0.152323
0.154428
0.156879
0.159344
0.161814
0.164848
0.168103
0.171334
0.175421
0.180122
0.185458
0.192108
0.200074
0.209155
0.218348
0.225717
0.230161
0.231749
0.231019
0.228451
0.224419
0.219218
0.213104
0.206299
0.198971
0.191266
0.183295
0.175165
0.166967
0.158786
0.150691
0.142738
0.134968
0.127416
0.120113
0.113081
0.106339
0.0998961
0.093756
0.0879192
0.082383
0.0771428
0.0721918
0.0675216
0.0631229
0.0589851
0.0550975
0.0514488
0.0480275
0.0448223
0.0418219
0.039015
0.0363909
0.0339389
0.031649
0.0295113
0.0275166
0.0256558
0.0239207
0.022303
0.0207953
0.0193903
0.0180813
0.0168619
0.0157262
0.0146685
0.0136836
0.0127664
0.0119125
0.0111175
0.0103772
0.00968805
0.00904638
0.00844889
0.00789252
0.00737437
0.00689174
0.00644211
0.00602312
0.00563258
0.00526843
0.00492874
0.0046117
0.00431558
0.00403876
0.00377976
0.00353704
0.00330937
0.00309514
0.0028936
0.0027025
0.00252238
0.00234846
0.00218598
0.00202065
0.00187508
0.00170021
0.00158335
0.00134786
0.00132181
0.000858975
0.00117887
-8.40887e-05
0.00154073
-0.00246864
0.0253549
0.0395346
0.0528198
0.0632112
0.071249
0.0777268
0.0832028
0.0877845
0.0914575
0.0944966
0.0972726
0.0999381
0.102483
0.104885
0.107147
0.109298
0.111402
0.113577
0.115943
0.118551
0.121385
0.124331
0.127193
0.129776
0.132005
0.133976
0.135858
0.137605
0.139196
0.140839
0.142683
0.144505
0.146217
0.148142
0.15027
0.152267
0.154399
0.156931
0.159368
0.161724
0.16477
0.168199
0.171569
0.17575
0.181095
0.186796
0.192054
0.196392
0.199991
0.203416
0.206779
0.209574
0.211122
0.211045
0.209312
0.20612
0.201727
0.196391
0.190337
0.183738
0.176742
0.169459
0.161996
0.154444
0.146889
0.139399
0.13203
0.124824
0.117815
0.111032
0.104499
0.0982337
0.0922463
0.086541
0.0811184
0.0759763
0.0711104
0.0665145
0.0621809
0.0581007
0.0542643
0.0506614
0.0472815
0.0441139
0.0411478
0.0383726
0.0357779
0.0333534
0.0310892
0.0289758
0.027004
0.0251652
0.0234508
0.021853
0.0203644
0.0189777
0.0176862
0.0164838
0.0153643
0.0143222
0.0133523
0.0124497
0.0116097
0.0108281
0.0101008
0.00942412
0.00879446
0.00820857
0.00766336
0.00715597
0.00668372
0.00624412
0.0058348
0.0054536
0.00509848
0.00476754
0.00445898
0.00417111
0.00390235
0.00365119
0.00341626
0.00319611
0.00298962
0.00279527
0.00261239
0.00243882
0.00227516
0.00211675
0.00196882
0.00181728
0.00168459
0.0015222
0.00141669
0.00119305
0.00117656
0.000726656
0.00105261
-0.000191404
0.00143045
-0.00253307
0.0223884
0.0386862
0.053617
0.0645432
0.0723209
0.0784717
0.0838337
0.088312
0.0918049
0.0947017
0.0974187
0.100063
0.102594
0.104989
0.107235
0.10935
0.11141
0.113543
0.115891
0.118504
0.121366
0.124361
0.127263
0.129853
0.132051
0.134005
0.135901
0.137657
0.139233
0.140881
0.142719
0.144473
0.146149
0.148181
0.150383
0.15224
0.154222
0.156847
0.159542
0.162095
0.165335
0.169506
0.173879
0.177587
0.180189
0.181876
0.183331
0.185153
0.187452
0.190168
0.193138
0.195979
0.198156
0.199221
0.198926
0.197251
0.194314
0.190304
0.185422
0.179838
0.173707
0.167155
0.160302
0.153255
0.146116
0.138965
0.131872
0.124886
0.118051
0.111403
0.104975
0.0987882
0.0928574
0.0871911
0.0817931
0.0766639
0.0718016
0.0672018
0.0628584
0.0587639
0.0549097
0.0512864
0.0478843
0.0446933
0.041703
0.0389032
0.0362839
0.033835
0.0315468
0.02941
0.0274154
0.0255545
0.023819
0.0222008
0.0206927
0.0192874
0.0179782
0.0167588
0.0156233
0.014566
0.0135817
0.0126655
0.0118126
0.0110189
0.0102802
0.00959266
0.00895281
0.00835733
0.00780309
0.00728721
0.00680697
0.00635985
0.00594347
0.00555564
0.00519428
0.00485747
0.0045434
0.00425036
0.00397674
0.00372101
0.00348179
0.00325761
0.00304733
0.00284943
0.00266321
0.00248649
0.00231988
0.00215868
0.00200813
0.00185411
0.00171909
0.00155447
0.00144689
0.00122116
0.00120286
0.000750778
0.00107537
-0.000171577
0.00144999
-0.00252048
0.0183341
0.0377838
0.0550843
0.0665781
0.0737825
0.0794498
0.084687
0.0890042
0.0922317
0.0949463
0.0975925
0.100206
0.102726
0.105126
0.107364
0.109441
0.111441
0.113517
0.115835
0.118444
0.121342
0.1244
0.127363
0.129973
0.132155
0.134091
0.135982
0.137679
0.139202
0.140929
0.142888
0.14456
0.146003
0.147995
0.150439
0.152573
0.154701
0.157603
0.161192
0.164628
0.167088
0.168445
0.169143
0.169678
0.170448
0.171464
0.172537
0.173724
0.175158
0.176973
0.179178
0.18158
0.183798
0.18541
0.186065
0.18559
0.183958
0.181254
0.177611
0.173164
0.168052
0.162398
0.156326
0.149952
0.143388
0.136728
0.130049
0.123413
0.116872
0.11047
0.104247
0.0982301
0.09244
0.0868898
0.081587
0.0765355
0.0717361
0.067187
0.0628841
0.0588216
0.0549923
0.051388
0.0480001
0.0448192
0.0418359
0.0390404
0.0364232
0.0339747
0.0316855
0.0295466
0.0275491
0.0256846
0.023945
0.0223225
0.0208097
0.0193996
0.0180856
0.0168614
0.015721
0.014659
0.0136701
0.0127493
0.0118921
0.0110942
0.0103514
0.00965999
0.00901642
0.00841738
0.00785976
0.00734066
0.00685736
0.00640734
0.0059882
0.00559776
0.00523393
0.00489479
0.00457852
0.0042834
0.00400782
0.00375024
0.00350927
0.00328344
0.00307161
0.00287225
0.00268464
0.00250662
0.00233879
0.00217643
0.00202479
0.00186973
0.00173374
0.00156818
0.00145973
0.00123314
0.00121407
0.000761092
0.00108507
-0.000163036
0.0014583
-0.00251486
0.0133635
0.037108
0.0574796
0.069332
0.0755005
0.0805782
0.0857238
0.0898064
0.0926926
0.0952123
0.0977865
0.100363
0.102874
0.105278
0.107493
0.10951
0.11143
0.113442
0.115736
0.11836
0.121315
0.124452
0.127461
0.130051
0.1322
0.134196
0.136198
0.137836
0.139116
0.14072
0.142878
0.144883
0.146536
0.148627
0.151551
0.154714
0.157169
0.15838
0.158734
0.158812
0.158914
0.159269
0.159834
0.160335
0.160774
0.161229
0.161701
0.162302
0.163161
0.164401
0.166065
0.168063
0.17014
0.171955
0.173158
0.173506
0.172877
0.171263
0.168722
0.165338
0.161219
0.156469
0.151207
0.14555
0.139614
0.1335
0.127294
0.121065
0.114873
0.10877
0.102802
0.0970025
0.0913978
0.0860054
0.0808367
0.0758992
0.0711967
0.0667298
0.0624967
0.0584935
0.0547144
0.0511529
0.0478012
0.0446511
0.0416939
0.0389206
0.0363222
0.0338896
0.031614
0.0294866
0.0274988
0.0256426
0.02391
0.0222934
0.0207856
0.0193798
0.0180693
0.0168481
0.0157104
0.0146505
0.0136634
0.0127441
0.0118882
0.0110913
0.0103494
0.00965872
0.00901575
0.0084172
0.00785998
0.0073412
0.00685815
0.00640833
0.00598935
0.00559903
0.00523529
0.00489621
0.00457997
0.00428487
0.00400929
0.0037517
0.00351071
0.00328486
0.003073
0.00287359
0.00268595
0.00250789
0.00234
0.0021776
0.00202591
0.00187081
0.00173477
0.00156917
0.00146066
0.00123404
0.00121489
0.000761951
0.00108574
-0.000162156
0.00145872
-0.0025138
0.00763083
0.036975
0.0610662
0.0727481
0.0772997
0.0817739
0.0868711
0.0906191
0.093121
0.0954644
0.0979699
0.100513
0.103041
0.105486
0.107704
0.109664
0.111493
0.113404
0.115638
0.118245
0.121272
0.124562
0.127681
0.130217
0.13216
0.134046
0.136236
0.13821
0.13973
0.1414
0.143818
0.146686
0.149131
0.15034
0.1504
0.150091
0.149813
0.149677
0.149834
0.15013
0.150286
0.150371
0.150494
0.150572
0.150634
0.150749
0.150934
0.151278
0.151881
0.152841
0.154208
0.155948
0.157892
0.159785
0.161315
0.16223
0.162354
0.161613
0.160002
0.157552
0.154334
0.150428
0.145939
0.140978
0.135661
0.130093
0.124364
0.11855
0.112717
0.106925
0.101223
0.0956521
0.0902433
0.0850183
0.0799928
0.0751775
0.0705794
0.0662016
0.0620445
0.0581061
0.0543825
0.0508682
0.0475569
0.0444413
0.0415135
0.0387654
0.0361886
0.0337745
0.0315148
0.0294009
0.0274249
0.0255786
0.0238546
0.0222454
0.020744
0.0193437
0.0180379
0.0168208
0.0156866
0.0146298
0.0136453
0.0127283
0.0118744
0.0110792
0.0103388
0.00964938
0.00900754
0.00840998
0.00785361
0.00733558
0.00685319
0.00640394
0.00598546
0.00559557
0.00523222
0.00489348
0.00457755
0.0042827
0.00400736
0.00374997
0.00350917
0.00328348
0.00307176
0.00287248
0.00268495
0.00250699
0.0023392
0.00217687
0.00202525
0.00187023
0.00173424
0.00156871
0.00146023
0.0012337
0.00121452
0.000761749
0.00108537
-0.000162102
0.00145818
-0.00251316
0.00125354
0.0377614
0.0661293
0.0767326
0.0790733
0.0830761
0.0881418
0.091416
0.0935061
0.0956861
0.0981029
0.100597
0.10314
0.105622
0.107832
0.109738
0.111499
0.113354
0.115555
0.11811
0.121112
0.124499
0.127856
0.130684
0.132823
0.134784
0.137231
0.139988
0.142365
0.143497
0.14328
0.142573
0.142024
0.141631
0.141404
0.141424
0.141442
0.141312
0.14121
0.141154
0.141007
0.140829
0.140718
0.140629
0.140577
0.140608
0.140729
0.14101
0.141532
0.14238
0.143602
0.145195
0.147047
0.148972
0.150709
0.152018
0.152705
0.152652
0.151806
0.150154
0.147728
0.144581
0.140802
0.136492
0.131762
0.126717
0.121451
0.116043
0.110564
0.105077
0.0996402
0.0942978
0.0890851
0.0840283
0.0791468
0.0744548
0.069962
0.0656742
0.0615939
0.0577211
0.0540534
0.0505869
0.0473163
0.0442355
0.0413374
0.0386147
0.0360596
0.033664
0.03142
0.0293197
0.0273553
0.025519
0.0238034
0.0222015
0.0207063
0.0193113
0.0180101
0.016797
0.0156661
0.0146122
0.0136302
0.0127153
0.0118632
0.0110696
0.0103305
0.00964233
0.0090015
0.0084048
0.00784917
0.00733178
0.00684994
0.00640117
0.00598309
0.00559356
0.00523051
0.00489204
0.00457632
0.00428167
0.00400649
0.00374925
0.00350857
0.00328298
0.00307135
0.00287215
0.00268469
0.00250678
0.00233904
0.00217676
0.00202517
0.00187018
0.00173421
0.00156871
0.00146023
0.00123376
0.00121453
0.000761909
0.00108532
-0.000161729
0.00145789
-0.00251226
-0.00574278
0.0398121
0.0727655
0.0809352
0.0806122
0.0844444
0.0894403
0.0921388
0.0938904
0.0959656
0.0983008
0.100771
0.10337
0.105909
0.108089
0.109869
0.111475
0.113246
0.115523
0.118285
0.121572
0.125289
0.129163
0.132795
0.135505
0.136652
0.136367
0.1355
0.134845
0.134342
0.133882
0.133634
0.133532
0.133302
0.132966
0.132717
0.132482
0.132173
0.131913
0.131717
0.131494
0.131283
0.13116
0.13109
0.13108
0.131156
0.131323
0.131639
0.132172
0.132997
0.134164
0.135682
0.13748
0.139421
0.141291
0.142877
0.143983
0.144469
0.144244
0.143261
0.141517
0.139039
0.135897
0.13218
0.127994
0.123439
0.11861
0.113588
0.108448
0.103258
0.0980776
0.0929578
0.0879372
0.0830457
0.0783061
0.0737359
0.0693473
0.0651488
0.0611449
0.0573372
0.0537253
0.0503064
0.0470765
0.0440304
0.041162
0.0384647
0.0359312
0.0335541
0.031326
0.0292392
0.0272863
0.0254599
0.0237528
0.0221581
0.0206692
0.0192795
0.0179829
0.0167736
0.0156461
0.014595
0.0136155
0.0127028
0.0118525
0.0110604
0.0103227
0.00963566
0.00899581
0.00839995
0.00784505
0.00732829
0.00684698
0.00639867
0.00598099
0.00559179
0.00522903
0.0048908
0.0045753
0.00428083
0.00400581
0.0037487
0.00350813
0.00328264
0.00307109
0.00287196
0.00268455
0.0025067
0.00233899
0.00217674
0.00202519
0.00187022
0.00173427
0.0015688
0.00146031
0.0012339
0.00121461
0.000762136
0.00108532
-0.000161289
0.00145762
-0.00251128
-0.0132149
0.0437801
0.0812134
0.0851131
0.08191
0.0859124
0.0906336
0.0926206
0.094075
0.0960286
0.0982494
0.100724
0.103468
0.106217
0.108606
0.110575
0.11238
0.114422
0.117092
0.120178
0.123201
0.125379
0.126404
0.126801
0.126946
0.126811
0.126486
0.126173
0.126019
0.125732
0.125269
0.124857
0.124543
0.124171
0.123741
0.123405
0.123133
0.122852
0.122636
0.12249
0.122344
0.122226
0.1222
0.122236
0.122337
0.12252
0.122786
0.123185
0.123778
0.124633
0.125796
0.127287
0.129058
0.131011
0.132971
0.134756
0.136176
0.137081
0.137358
0.136929
0.135764
0.133867
0.131289
0.128105
0.124412
0.120307
0.115883
0.111223
0.106403
0.101493
0.0965585
0.0916519
0.0868159
0.0820839
0.0774818
0.0730297
0.0687426
0.0646311
0.0607017
0.056958
0.0534007
0.0500285
0.0468386
0.0438267
0.0409876
0.0383152
0.0358031
0.0334443
0.0312319
0.0291585
0.027217
0.0254005
0.0237018
0.0221144
0.0206316
0.0192472
0.0179552
0.0167498
0.0156256
0.0145775
0.0136004
0.0126898
0.0118414
0.0110509
0.0103145
0.00962861
0.00898977
0.00839477
0.00784062
0.00732449
0.00684374
0.00639589
0.00597862
0.00558978
0.00522732
0.00488935
0.00457408
0.0042798
0.00400494
0.00374797
0.00350752
0.00328213
0.00307068
0.00287163
0.00268428
0.00250648
0.00233883
0.00217662
0.0020251
0.00187017
0.00173423
0.00156881
0.00146031
0.00123396
0.00121461
0.0007623
0.00108525
-0.000160892
0.00145728
-0.00251032
-0.0213438
0.0500211
0.0913177
0.0889707
0.0832489
0.0878696
0.0921408
0.0935296
0.0949336
0.0968856
0.0990742
0.101622
0.104481
0.107218
0.109279
0.110434
0.110809
0.110824
0.111168
0.112101
0.113638
0.115218
0.116388
0.117231
0.117705
0.117712
0.117409
0.117005
0.1167
0.116309
0.115822
0.115396
0.115086
0.114775
0.114443
0.114209
0.114058
0.113924
0.113853
0.113842
0.11384
0.11387
0.113987
0.114167
0.11441
0.114725
0.115113
0.115618
0.116295
0.117205
0.118395
0.119886
0.12165
0.123615
0.125641
0.127571
0.129228
0.130462
0.131142
0.131172
0.130496
0.1291
0.127014
0.124303
0.121053
0.117357
0.113305
0.108978
0.104455
0.0998081
0.095104
0.0903986
0.0857376
0.0811572
0.0766861
0.072347
0.0681572
0.0641292
0.0602716
0.0565894
0.0530848
0.0497578
0.0466066
0.0436278
0.0408171
0.038169
0.0356777
0.0333367
0.0311395
0.0290792
0.0271489
0.0253419
0.0236515
0.0220711
0.0205944
0.0192152
0.0179277
0.0167261
0.0156052
0.0145599
0.0135853
0.0126768
0.0118301
0.0110412
0.0103062
0.00962145
0.00898359
0.00838946
0.00783604
0.00732055
0.00684035
0.00639298
0.00597612
0.00558763
0.00522548
0.00488777
0.00457273
0.00427865
0.00400396
0.00374714
0.00350681
0.00328154
0.00307017
0.0028712
0.00268393
0.00250619
0.00233859
0.00217643
0.00202494
0.00187005
0.00173414
0.00156875
0.00146026
0.00123397
0.00121456
0.000762419
0.00108514
-0.000160533
0.0014569
-0.00250939
-0.0295236
0.0590097
0.102233
0.0914704
0.0837669
0.0888952
0.0920871
0.0926186
0.0936488
0.0950619
0.0965838
0.0984457
0.100503
0.102216
0.103023
0.102846
0.102063
0.101303
0.101305
0.10218
0.103793
0.10547
0.106698
0.107512
0.107883
0.107829
0.107545
0.107182
0.106932
0.10664
0.106309
0.106042
0.105889
0.105757
0.105617
0.105563
0.105594
0.10565
0.10576
0.105917
0.106083
0.10628
0.106557
0.106893
0.107286
0.10774
0.108257
0.108874
0.109643
0.110622
0.111853
0.113363
0.115133
0.117112
0.119188
0.121226
0.123066
0.124558
0.125565
0.125972
0.12571
0.124742
0.123085
0.12079
0.117936
0.114608
0.110893
0.106871
0.102621
0.0982174
0.0937276
0.0892102
0.0847132
0.0802753
0.0759277
0.0716954
0.0675977
0.0636491
0.0598597
0.0562361
0.0527818
0.0494979
0.0463837
0.0434366
0.040653
0.0380282
0.0355568
0.0332329
0.0310503
0.0290026
0.0270831
0.0252853
0.0236028
0.0220292
0.0205584
0.0191842
0.0179009
0.0167031
0.0155854
0.0145428
0.0135705
0.0126641
0.0118192
0.0110318
0.010298
0.0096144
0.00897751
0.00838421
0.00783152
0.00731665
0.00683698
0.00639008
0.00597362
0.00558548
0.00522363
0.00488618
0.00457136
0.00427747
0.00400295
0.00374627
0.00350607
0.00328091
0.00306964
0.00287075
0.00268355
0.00250587
0.00233832
0.00217621
0.00202476
0.00186991
0.00173402
0.00156867
0.00146018
0.00123396
0.0012145
0.000762514
0.00108501
-0.000160197
0.00145651
-0.00250849
-0.0401221
0.0686797
0.11122
0.090996
0.0827158
0.0883735
0.0902883
0.0901066
0.0906391
0.0911514
0.091579
0.0923259
0.0932867
0.0939872
0.0939324
0.0930961
0.0918673
0.0908557
0.0907579
0.0916158
0.0932788
0.095046
0.0963934
0.0973091
0.0977558
0.0978164
0.0976982
0.0975209
0.0974619
0.0973829
0.0972894
0.0972488
0.0973103
0.0973976
0.0974782
0.0976322
0.0978654
0.0981224
0.0984219
0.0987553
0.0990942
0.0994606
0.099898
0.100388
0.100926
0.101515
0.102155
0.102882
0.103743
0.104793
0.106073
0.10761
0.109393
0.111388
0.113503
0.115625
0.117607
0.119305
0.120576
0.121297
0.121382
0.12078
0.119496
0.117567
0.115063
0.112065
0.108653
0.104909
0.100909
0.0967282
0.0924364
0.0880931
0.0837485
0.0794436
0.0752115
0.0710792
0.0670681
0.0631941
0.059469
0.0559006
0.0524938
0.0492508
0.0461715
0.0432545
0.0404966
0.0378939
0.0354415
0.0331338
0.0309652
0.0289294
0.0270201
0.0252312
0.0235563
0.0219891
0.0205238
0.0191544
0.0178753
0.016681
0.0155663
0.0145264
0.0135564
0.0126519
0.0118086
0.0110226
0.0102901
0.00960759
0.00897163
0.00837914
0.00782713
0.00731286
0.00683371
0.00638725
0.00597118
0.00558337
0.00522181
0.00488461
0.00457001
0.00427631
0.00400195
0.00374541
0.00350534
0.00328028
0.0030691
0.00287029
0.00268315
0.00250554
0.00233804
0.00217597
0.00202456
0.00186975
0.00173388
0.00156857
0.00146009
0.00123393
0.00121442
0.000762595
0.00108487
-0.000159882
0.00145611
-0.00250762
-0.0495869
0.081915
0.119807
0.0895229
0.0814869
0.086665
0.0865087
0.085092
0.084405
0.0834171
0.0825102
0.0823072
0.0827037
0.0831337
0.0829643
0.0820764
0.0808302
0.0798562
0.0798685
0.0808871
0.0827495
0.0847277
0.0862983
0.0874188
0.0880501
0.0883191
0.0884348
0.0884986
0.0886772
0.0888429
0.0890071
0.0892094
0.0894982
0.0898086
0.0901108
0.0904727
0.0909043
0.0913549
0.0918367
0.0923399
0.0928441
0.0933702
0.0939582
0.0945909
0.0952641
0.0959772
0.0967318
0.0975611
0.0985103
0.0996311
0.100962
0.10253
0.104332
0.106344
0.108491
0.110679
0.112774
0.114637
0.116124
0.117105
0.117482
0.117194
0.116232
0.114624
0.11243
0.109725
0.106587
0.103093
0.0993198
0.0953433
0.0912331
0.0870503
0.0828465
0.0786647
0.0745399
0.0705008
0.0665703
0.062766
0.059101
0.0555845
0.0522223
0.0490175
0.0459712
0.0430824
0.0403489
0.0377669
0.0353324
0.0330401
0.0308846
0.02886
0.0269605
0.0251799
0.0235121
0.0219511
0.020491
0.0191262
0.0178509
0.01666
0.0155482
0.0145107
0.0135429
0.0126402
0.0117985
0.0110139
0.0102826
0.00960109
0.00896601
0.00837427
0.00782292
0.00730922
0.00683056
0.00638453
0.00596882
0.00558133
0.00522005
0.00488309
0.0045687
0.00427518
0.00400098
0.00374457
0.00350461
0.00327966
0.00306856
0.00286983
0.00268276
0.00250521
0.00233775
0.00217574
0.00202436
0.00186959
0.00173374
0.00156847
0.00145999
0.0012339
0.00121433
0.000762663
0.00108472
-0.000159586
0.00145572
-0.00250679
-0.0597041
0.096411
0.12461
0.0843299
0.0771613
0.0807196
0.0779731
0.0752342
0.0735219
0.0717221
0.0704551
0.0702561
0.0708539
0.071555
0.0716429
0.0709749
0.0699256
0.0691663
0.0694301
0.0707236
0.0728655
0.0751046
0.076926
0.0782696
0.079106
0.0796005
0.0799583
0.0802717
0.0806922
0.0811037
0.0815194
0.08196
0.082471
0.0829959
0.0835094
0.0840691
0.0846878
0.0853179
0.0859681
0.0866283
0.0872846
0.0879572
0.0886825
0.0894443
0.0902379
0.091062
0.0919191
0.0928414
0.0938717
0.0950586
0.0964387
0.0980394
0.0998609
0.10189
0.104065
0.106306
0.108492
0.11049
0.112155
0.113352
0.113976
0.113957
0.113274
0.111946
0.110026
0.107582
0.104688
0.101419
0.0978526
0.0940619
0.0901176
0.086082
0.0820078
0.0779394
0.0739137
0.0699609
0.0661052
0.0623657
0.0587567
0.0552884
0.0519678
0.0487988
0.0457833
0.0429209
0.04021
0.0376476
0.0352298
0.0329519
0.0308087
0.0287948
0.0269043
0.0251315
0.0234704
0.0219152
0.0204601
0.0190995
0.0178279
0.0166401
0.0155311
0.0144959
0.0135301
0.0126292
0.011789
0.0110057
0.0102755
0.00959492
0.00896067
0.00836966
0.00781893
0.00730576
0.00682757
0.00638194
0.00596658
0.00557939
0.00521837
0.00488164
0.00456744
0.00427409
0.00400004
0.00374377
0.00350392
0.00327906
0.00306805
0.00286939
0.00268238
0.00250488
0.00233748
0.0021755
0.00202416
0.00186942
0.0017336
0.00156837
0.00145989
0.00123386
0.00121424
0.000762721
0.00108458
-0.000159311
0.00145534
-0.00250601
-0.0712707
0.111467
0.123968
0.072969
0.0664596
0.0680831
0.0638222
0.0611771
0.0598044
0.0583885
0.0576051
0.0579246
0.0590354
0.0602191
0.0607364
0.0604453
0.0597315
0.0592943
0.0598747
0.0614701
0.0638884
0.0663728
0.0684256
0.0699806
0.0710208
0.0717393
0.0723341
0.0728907
0.073545
0.0741904
0.0748404
0.0755028
0.0762196
0.0769408
0.0776458
0.0783842
0.0791704
0.0799597
0.080759
0.0815593
0.0823517
0.0831547
0.0840017
0.0848768
0.0857753
0.0866963
0.0876438
0.0886494
0.0897536
0.0910022
0.0924292
0.0940622
0.0959049
0.0979514
0.100152
0.102438
0.104698
0.106806
0.108618
0.109997
0.110831
0.111041
0.1106
0.109517
0.107839
0.105626
0.10295
0.0998842
0.0965033
0.0928811
0.0890881
0.0851869
0.0812313
0.0772672
0.0733327
0.0694594
0.0656728
0.0619933
0.0584361
0.0550126
0.0517305
0.0485948
0.0456079
0.0427701
0.0400804
0.0375361
0.0351339
0.0328694
0.0307377
0.0287337
0.0268517
0.0250862
0.0234314
0.0218816
0.0204311
0.0190745
0.0178064
0.0166215
0.015515
0.0144821
0.0135181
0.0126188
0.01178
0.0109979
0.0102688
0.00958912
0.00895565
0.00836531
0.00781516
0.0073025
0.00682474
0.00637949
0.00596446
0.00557756
0.00521678
0.00488027
0.00456625
0.00427306
0.00399915
0.003743
0.00350325
0.00327848
0.00306755
0.00286897
0.00268202
0.00250457
0.00233721
0.00217528
0.00202397
0.00186926
0.00173346
0.00156827
0.00145979
0.00123382
0.00121415
0.000762772
0.00108444
-0.000159054
0.00145499
-0.00250528
-0.0964744
0.11318
0.110349
0.0514994
0.0475153
0.0497663
0.0467278
0.0457709
0.0456125
0.0451304
0.0451536
0.0461715
0.0478998
0.0496383
0.0506583
0.0508238
0.0505224
0.0504637
0.0513779
0.0532592
0.05591
0.0585911
0.0608309
0.0625652
0.0637903
0.0647167
0.0655306
0.0663138
0.0671839
0.0680454
0.0689081
0.069773
0.070677
0.0715754
0.0724531
0.0733519
0.074287
0.075216
0.0761462
0.0770701
0.0779831
0.0789015
0.079855
0.0808277
0.0818154
0.0828188
0.0838442
0.084923
0.0860934
0.0873979
0.0888683
0.0905318
0.092395
0.0944585
0.0966816
0.0990065
0.10133
0.10353
0.105466
0.106998
0.10801
0.108418
0.108187
0.107319
0.105853
0.103845
0.101364
0.0984797
0.0952663
0.0917969
0.0881414
0.0843626
0.0805154
0.0766467
0.0727958
0.0689955
0.0652726
0.0616483
0.0581389
0.0547567
0.0515103
0.0484053
0.0454449
0.0426299
0.0399598
0.0374324
0.0350447
0.0327926
0.0306717
0.0286768
0.0268027
0.025044
0.023395
0.0218502
0.0204041
0.0190512
0.0177862
0.0166041
0.0155
0.0144691
0.0135069
0.0126091
0.0117717
0.0109907
0.0102625
0.00958369
0.00895095
0.00836124
0.00781164
0.00729945
0.0068221
0.0063772
0.00596247
0.00557584
0.00521529
0.00487897
0.00456513
0.00427209
0.00399831
0.00374227
0.00350263
0.00327794
0.00306709
0.00286856
0.00268167
0.00250427
0.00233695
0.00217506
0.00202378
0.00186911
0.00173333
0.00156817
0.00145969
0.00123377
0.00121406
0.000762817
0.0010843
-0.000158817
0.00145464
-0.00250459
-0.143369
0.071974
0.0685416
0.0194806
0.0249876
0.030483
0.0297027
0.0307372
0.0320348
0.0326934
0.0336369
0.0354004
0.0377581
0.0400518
0.0415811
0.0422168
0.0423406
0.0426593
0.0438833
0.0460104
0.0488445
0.0516796
0.0540721
0.0559639
0.0573603
0.0584796
0.0594952
0.0604854
0.061551
0.062607
0.0636586
0.0647033
0.0657727
0.0668272
0.067856
0.0688949
0.069959
0.0710087
0.0720524
0.0730844
0.0741034
0.075123
0.0761692
0.0772259
0.0782902
0.0793647
0.0804583
0.0816022
0.0828323
0.084188
0.0856986
0.0873911
0.0892745
0.0913546
0.0935986
0.0959566
0.0983328
0.10061
0.102649
0.104311
0.105475
0.106054
0.106005
0.105326
0.104048
0.102223
0.0999161
0.0971952
0.0941332
0.0908022
0.0872716
0.0836044
0.0798562
0.0760747
0.0723004
0.0685672
0.0649028
0.0613292
0.0578639
0.0545198
0.0513064
0.0482298
0.0452938
0.0424999
0.0398479
0.0373361
0.0349618
0.0327212
0.0306102
0.0286239
0.0267571
0.0250047
0.0233611
0.021821
0.0203789
0.0190294
0.0177674
0.0165879
0.015486
0.014457
0.0134964
0.0126
0.0117638
0.0109839
0.0102566
0.00957857
0.00894652
0.00835739
0.0078083
0.00729655
0.00681958
0.00637501
0.00596058
0.00557419
0.00521386
0.00487773
0.00456405
0.00427116
0.0039975
0.00374157
0.00350201
0.00327741
0.00306663
0.00286817
0.00268133
0.00250397
0.00233669
0.00217484
0.00202359
0.00186895
0.00173319
0.00156806
0.00145958
0.00123372
0.00121397
0.000762852
0.00108416
-0.000158588
0.00145429
-0.00250392
-0.178217
0.0175486
0.0183393
-0.0173435
-0.00292221
0.00663374
0.00918352
0.0128317
0.0160275
0.0181519
0.0202503
0.0229417
0.0260736
0.0290353
0.03116
0.0323316
0.0329343
0.0336821
0.0352704
0.0377025
0.0407735
0.0438084
0.0463858
0.0484558
0.0500377
0.0513623
0.0525928
0.0538068
0.0550851
0.0563546
0.0576139
0.0588575
0.0601116
0.0613412
0.0625405
0.0637391
0.0649523
0.0661429
0.0673189
0.0684764
0.0696175
0.0707543
0.0719095
0.0730673
0.0742245
0.0753853
0.0765601
0.0777801
0.0790792
0.080494
0.0820515
0.083778
0.085685
0.0877826
0.0900464
0.0924355
0.0948635
0.0972196
0.0993687
0.101171
0.102504
0.103275
0.103435
0.102973
0.101913
0.1003
0.0981969
0.0956679
0.092784
0.0896162
0.0862333
0.0826984
0.0790677
0.07539
0.0717071
0.0680538
0.0644592
0.0609464
0.0575338
0.0542353
0.0510613
0.0480187
0.045112
0.0423434
0.0397132
0.0372202
0.034862
0.0326353
0.0305362
0.0285601
0.0267021
0.0249573
0.0233202
0.0217857
0.0203484
0.0190031
0.0177447
0.0165683
0.015469
0.0144422
0.0134837
0.012589
0.0117542
0.0109756
0.0102494
0.00957235
0.00894111
0.0083527
0.00780422
0.00729301
0.0068165
0.00637233
0.00595825
0.00557216
0.0052121
0.0048762
0.00456272
0.00426999
0.00399649