/*--------------------------------*- C++ -*----------------------------------*\
| =========                 |                                                 |
| \\      /  F ield         | OpenFOAM: The Open Source CFD Toolbox           |
|  \\    /   O peration     | Version:  4.x                                   |
|   \\  /    A nd           | Web:      www.OpenFOAM.org                      |
|    \\/     M anipulation  |                                                 |
\*---------------------------------------------------------------------------*/
FoamFile
{
    version     2.0;
    format      ascii;
    class       surfaceScalarField;
    location    "1";
    object      phi;
}
// * * * * * * * * * * * * * * * * * * * * * * * * * * * * * * * * * * * * * //

dimensions      [0 3 -1 0 0 0 0];

internalField   nonuniform List<scalar> 
23728
(
1.30207e-06
-5.4871e-09
1.30815e-06
-6.08205e-09
1.31398e-06
-5.83665e-09
1.31871e-06
-4.72436e-09
1.32225e-06
-3.54792e-09
1.3249e-06
-2.65108e-09
1.32688e-06
-1.9788e-09
1.32838e-06
-1.50186e-09
1.3296e-06
-1.21476e-09
1.33066e-06
-1.06419e-09
1.33166e-06
-9.98166e-10
1.33264e-06
-9.86563e-10
1.33365e-06
-1.01382e-09
1.33471e-06
-1.06129e-09
1.33583e-06
-1.12018e-09
1.33701e-06
-1.18023e-09
1.33825e-06
-1.24022e-09
1.33955e-06
-1.29442e-09
1.34089e-06
-1.34445e-09
1.34228e-06
-1.38633e-09
1.3437e-06
-1.42232e-09
1.34515e-06
-1.44741e-09
1.34661e-06
-1.46167e-09
1.34806e-06
-1.45516e-09
1.34948e-06
-1.41937e-09
1.35082e-06
-1.33067e-09
1.35198e-06
-1.16245e-09
1.35285e-06
-8.74567e-10
1.35332e-06
-4.60283e-10
3.25421e-11
1.35328e-06
3.42185e-06
-1.98514e-08
3.43805e-06
-2.22831e-08
3.45348e-06
-2.12666e-08
3.46587e-06
-1.71156e-08
3.47516e-06
-1.2834e-08
3.48207e-06
-9.5675e-09
3.4872e-06
-7.11218e-09
3.49109e-06
-5.39006e-09
3.49423e-06
-4.36425e-09
3.49699e-06
-3.82884e-09
3.49959e-06
-3.59516e-09
3.50216e-06
-3.56049e-09
3.5048e-06
-3.66251e-09
3.50757e-06
-3.83927e-09
3.51051e-06
-4.05311e-09
3.51359e-06
-4.27378e-09
3.51684e-06
-4.49027e-09
3.52024e-06
-4.68899e-09
3.52376e-06
-4.86881e-09
3.5274e-06
-5.02318e-09
3.53113e-06
-5.15238e-09
3.53493e-06
-5.24704e-09
3.53877e-06
-5.29907e-09
3.54259e-06
-5.28204e-09
3.54633e-06
-5.15752e-09
3.54985e-06
-4.8476e-09
3.55294e-06
-4.24571e-09
3.55527e-06
-3.20552e-09
3.55649e-06
-1.68021e-09
1.70776e-10
3.55635e-06
4.93205e-06
-4.05321e-08
4.95609e-06
-4.63233e-08
4.97863e-06
-4.38089e-08
4.99645e-06
-3.49325e-08
5.00974e-06
-2.61254e-08
5.01956e-06
-1.93944e-08
5.02678e-06
-1.43317e-08
5.03223e-06
-1.08418e-08
5.03666e-06
-8.79724e-09
5.04056e-06
-7.73147e-09
5.04424e-06
-7.2783e-09
5.0479e-06
-7.22204e-09
5.05168e-06
-7.44897e-09
5.05565e-06
-7.8142e-09
5.05986e-06
-8.26324e-09
5.0643e-06
-8.71355e-09
5.06897e-06
-9.1647e-09
5.07385e-06
-9.56744e-09
5.07892e-06
-9.94175e-09
5.08415e-06
-1.02529e-08
5.08953e-06
-1.0524e-08
5.09499e-06
-1.0715e-08
5.10053e-06
-1.08332e-08
5.10605e-06
-1.08054e-08
5.11147e-06
-1.05775e-08
5.1166e-06
-9.97231e-09
5.12114e-06
-8.78525e-09
5.1246e-06
-6.66212e-09
5.12641e-06
-3.4834e-09
5.14638e-10
5.12607e-06
5.96208e-06
-6.57427e-08
5.99235e-06
-7.65997e-08
6.02009e-06
-7.15484e-08
6.04158e-06
-5.64274e-08
6.05752e-06
-4.20684e-08
6.06917e-06
-3.1049e-08
6.07761e-06
-2.27766e-08
6.08396e-06
-1.72035e-08
6.08916e-06
-1.39946e-08
6.09375e-06
-1.23333e-08
6.09812e-06
-1.16432e-08
6.10248e-06
-1.15952e-08
6.10701e-06
-1.19857e-08
6.11178e-06
-1.25993e-08
6.11685e-06
-1.33323e-08
6.12219e-06
-1.40727e-08
6.12783e-06
-1.48012e-08
6.13372e-06
-1.5459e-08
6.13984e-06
-1.60608e-08
6.14616e-06
-1.65705e-08
6.15265e-06
-1.70074e-08
6.15925e-06
-1.73279e-08
6.16595e-06
-1.7527e-08
6.17265e-06
-1.75109e-08
6.17926e-06
-1.71804e-08
6.18556e-06
-1.62707e-08
6.19121e-06
-1.4424e-08
6.19557e-06
-1.10258e-08
6.19785e-06
-5.75707e-09
1.18444e-09
6.19718e-06
6.61583e-06
-9.43189e-08
6.65116e-06
-1.11934e-07
6.68254e-06
-1.02931e-07
6.70636e-06
-8.02427e-08
6.72389e-06
-5.96095e-08
6.7365e-06
-4.3661e-08
6.7455e-06
-3.1777e-08
6.75226e-06
-2.39733e-08
6.75783e-06
-1.95669e-08
6.76278e-06
-1.72892e-08
6.76752e-06
-1.63879e-08
6.77229e-06
-1.63674e-08
6.77728e-06
-1.6979e-08
6.78254e-06
-1.78651e-08
6.78815e-06
-1.89445e-08
6.79407e-06
-1.99951e-08
6.80032e-06
-2.10574e-08
6.80685e-06
-2.19817e-08
6.81364e-06
-2.28584e-08
6.82064e-06
-2.35697e-08
6.82785e-06
-2.42131e-08
6.83518e-06
-2.46612e-08
6.84264e-06
-2.49803e-08
6.8501e-06
-2.49775e-08
6.85751e-06
-2.45889e-08
6.86464e-06
-2.33874e-08
6.87113e-06
-2.09154e-08
6.87624e-06
-1.61301e-08
6.87895e-06
-8.46161e-09
2.28369e-09
6.87785e-06
6.97813e-06
-1.2559e-07
7.01763e-06
-1.51438e-07
7.05139e-06
-1.36695e-07
7.07654e-06
-1.05395e-07
7.0949e-06
-7.79812e-08
7.10782e-06
-5.65897e-08
7.11689e-06
-4.0856e-08
7.12372e-06
-3.08072e-08
7.12938e-06
-2.52309e-08
7.13445e-06
-2.23703e-08
7.13935e-06
-2.12883e-08
7.14431e-06
-2.13537e-08
7.14953e-06
-2.22079e-08
7.15506e-06
-2.34218e-08
7.16097e-06
-2.48548e-08
7.16721e-06
-2.62623e-08
7.17382e-06
-2.76548e-08
7.18071e-06
-2.88844e-08
7.18789e-06
-3.00273e-08
7.19528e-06
-3.09769e-08
7.2029e-06
-3.1817e-08
7.21065e-06
-3.243e-08
7.21855e-06
-3.28631e-08
7.22647e-06
-3.29193e-08
7.23438e-06
-3.24882e-08
7.24206e-06
-3.10714e-08
7.24919e-06
-2.80182e-08
7.25494e-06
-2.18909e-08
7.25807e-06
-1.15848e-08
3.92192e-09
7.25644e-06
7.11882e-06
-1.59221e-07
7.16172e-06
-1.94332e-07
7.19679e-06
-1.71772e-07
7.22255e-06
-1.31153e-07
7.24113e-06
-9.65683e-08
7.25385e-06
-6.9316e-08
7.26265e-06
-4.96648e-08
7.26928e-06
-3.7443e-08
7.27483e-06
-3.07889e-08
7.27983e-06
-2.73749e-08
7.28472e-06
-2.61866e-08
7.2897e-06
-2.6343e-08
7.295e-06
-2.75078e-08
7.3006e-06
-2.90317e-08
7.30663e-06
-3.08848e-08
7.31298e-06
-3.26201e-08
7.31973e-06
-3.44043e-08
7.32675e-06
-3.59026e-08
7.33408e-06
-3.73676e-08
7.34162e-06
-3.85137e-08
7.34941e-06
-3.9604e-08
7.35732e-06
-4.03411e-08
7.3654e-06
-4.09469e-08
7.37352e-06
-4.10377e-08
7.38168e-06
-4.06481e-08
7.38967e-06
-3.90502e-08
7.39724e-06
-3.55806e-08
7.40353e-06
-2.8176e-08
7.40711e-06
-1.51444e-08
6.20088e-09
7.40484e-06
7.09326e-06
-1.94979e-07
7.13862e-06
-2.3969e-07
7.174e-06
-2.07155e-07
7.19974e-06
-1.56902e-07
7.21798e-06
-1.14826e-07
7.23007e-06
-8.14202e-08
7.23832e-06
-5.79177e-08
7.24453e-06
-4.36705e-08
7.24979e-06
-3.60389e-08
7.25455e-06
-3.21569e-08
7.25927e-06
-3.0902e-08
7.26411e-06
-3.12277e-08
7.2693e-06
-3.26874e-08
7.2748e-06
-3.45909e-08
7.28076e-06
-3.68163e-08
7.28703e-06
-3.89414e-08
7.29371e-06
-4.10556e-08
7.30065e-06
-4.28803e-08
7.30793e-06
-4.46048e-08
7.31538e-06
-4.60081e-08
7.32311e-06
-4.72912e-08
7.33095e-06
-4.82196e-08
7.33899e-06
-4.89533e-08
7.34707e-06
-4.9161e-08
7.35526e-06
-4.88044e-08
7.36333e-06
-4.71633e-08
7.37116e-06
-4.33585e-08
7.3779e-06
-3.4947e-08
7.38196e-06
-1.91805e-08
9.231e-09
7.37894e-06
6.94114e-06
-2.32879e-07
6.98803e-06
-2.86572e-07
7.02295e-06
-2.42083e-07
7.04825e-06
-1.82194e-07
7.06572e-06
-1.32304e-07
7.07687e-06
-9.25706e-08
7.08438e-06
-6.54396e-08
7.09003e-06
-4.93265e-08
7.09487e-06
-4.088e-08
7.09926e-06
-3.65567e-08
7.10369e-06
-3.53479e-08
7.10826e-06
-3.57971e-08
7.11321e-06
-3.76471e-08
7.11847e-06
-3.98484e-08
7.12419e-06
-4.25446e-08
7.13022e-06
-4.49666e-08
7.13667e-06
-4.75094e-08
7.14336e-06
-4.95656e-08
7.15039e-06
-5.16475e-08
7.1576e-06
-5.32149e-08
7.1651e-06
-5.4791e-08
7.1727e-06
-5.58228e-08
7.18053e-06
-5.67872e-08
7.18841e-06
-5.70339e-08
7.19642e-06
-5.68175e-08
7.20436e-06
-5.50939e-08
7.21214e-06
-5.11293e-08
7.219e-06
-4.18019e-08
7.22317e-06
-2.33403e-08
1.35866e-08
7.2188e-06
6.69395e-06
-2.72953e-07
6.7412e-06
-3.33813e-07
6.77499e-06
-2.75889e-07
6.79937e-06
-2.06577e-07
6.81557e-06
-1.48528e-07
6.82545e-06
-1.02464e-07
6.83197e-06
-7.19643e-08
6.83681e-06
-5.41905e-08
6.84098e-06
-4.50378e-08
6.84476e-06
-4.03818e-08
6.84865e-06
-3.92254e-08
6.85267e-06
-3.98942e-08
6.85711e-06
-4.20541e-08
6.86183e-06
-4.4657e-08
6.86702e-06
-4.76952e-08
6.87249e-06
-5.05144e-08
6.87837e-06
-5.33286e-08
6.88443e-06
-5.56932e-08
6.89078e-06
-5.79293e-08
6.89717e-06
-5.96601e-08
6.90366e-06
-6.12036e-08
6.90993e-06
-6.21513e-08
6.91599e-06
-6.27707e-08
6.92143e-06
-6.25369e-08
6.92618e-06
-6.15146e-08
6.92983e-06
-5.87993e-08
6.93221e-06
-5.34322e-08
6.93269e-06
-4.23283e-08
6.92963e-06
-2.02523e-08
2.73594e-08
6.91588e-06
6.37121e-06
-3.14734e-07
6.41688e-06
-3.79484e-07
6.44834e-06
-3.07342e-07
6.47061e-06
-2.28842e-07
6.48442e-06
-1.62334e-07
6.49208e-06
-1.10116e-07
6.49679e-06
-7.66836e-08
6.50003e-06
-5.74228e-08
6.50276e-06
-4.77846e-08
6.50514e-06
-4.27642e-08
6.50768e-06
-4.17804e-08
6.51028e-06
-4.24889e-08
6.51321e-06
-4.499e-08
6.51621e-06
-4.76479e-08
6.51936e-06
-5.08593e-08
6.52224e-06
-5.33895e-08
6.52473e-06
-5.58308e-08
6.52623e-06
-5.71795e-08
6.52644e-06
-5.81545e-08
6.52467e-06
-5.78888e-08
6.52063e-06
-5.71747e-08
6.5137e-06
-5.52149e-08
6.50377e-06
-5.28484e-08
6.4905e-06
-4.92652e-08
6.47416e-06
-4.51827e-08
6.4549e-06
-3.95297e-08
6.43347e-06
-3.19917e-08
6.41043e-06
-1.9293e-08
6.3856e-06
4.55872e-09
6.18386e-08
6.35105e-06
5.97242e-06
-3.55686e-07
6.01165e-06
-4.18717e-07
6.03676e-06
-3.32478e-07
6.05318e-06
-2.45315e-07
6.06145e-06
-1.70668e-07
6.06439e-06
-1.13168e-07
6.0651e-06
-7.74234e-08
6.06464e-06
-5.70907e-08
6.06376e-06
-4.68921e-08
6.0622e-06
-4.13379e-08
6.06017e-06
-3.97241e-08
6.05696e-06
-3.94047e-08
6.05228e-06
-4.0281e-08
6.04515e-06
-4.06279e-08
6.03504e-06
-4.07042e-08
6.02103e-06
-3.94652e-08
6.00282e-06
-3.75624e-08
5.98001e-06
-3.44428e-08
5.95299e-06
-3.10578e-08
5.92213e-06
-2.70869e-08
5.88856e-06
-2.35141e-08
5.85319e-06
-1.99054e-08
5.81746e-06
-1.70272e-08
5.78226e-06
-1.41228e-08
5.74874e-06
-1.15955e-08
5.71744e-06
-8.28702e-09
5.68909e-06
-3.51865e-09
5.66396e-06
5.92237e-09
5.64178e-06
2.69173e-08
9.16e-08
5.61214e-06
5.4619e-06
-3.83047e-07
5.48319e-06
-4.40006e-07
5.49428e-06
-3.43561e-07
5.49886e-06
-2.49885e-07
5.49686e-06
-1.68669e-07
5.4909e-06
-1.072e-07
5.48308e-06
-6.96101e-08
5.47312e-06
-4.71252e-08
5.46064e-06
-3.44322e-08
5.44422e-06
-2.49083e-08
5.4233e-06
-1.88128e-08
5.3968e-06
-1.28881e-08
5.36486e-06
-8.34205e-09
5.32763e-06
-3.38142e-09
5.28653e-06
4.03799e-10
5.24294e-06
4.14331e-09
5.19901e-06
6.36072e-09
5.1563e-06
8.27311e-09
5.11643e-06
8.8062e-09
5.07998e-06
9.37011e-09
5.04743e-06
9.0228e-09
5.0184e-06
9.13745e-09
4.99271e-06
8.66296e-09
4.96967e-06
8.92565e-09
4.94914e-06
8.93275e-09
4.9307e-06
1.01673e-08
4.91461e-06
1.25856e-08
4.9011e-06
1.94325e-08
4.89056e-06
3.74192e-08
1.10788e-07
4.87132e-06
4.76373e-06
-4.12271e-07
4.77099e-06
-4.47258e-07
4.76577e-06
-3.38394e-07
4.75207e-06
-2.36227e-07
4.73118e-06
-1.47784e-07
4.70554e-06
-8.1756e-08
4.67601e-06
-3.9928e-08
4.64147e-06
-1.29136e-08
4.60209e-06
5.15068e-09
4.55802e-06
1.88358e-08
4.51154e-06
2.78454e-08
4.46459e-06
3.38108e-08
4.4201e-06
3.62968e-08
4.37961e-06
3.69345e-08
4.34444e-06
3.57118e-08
4.31435e-06
3.40882e-08
4.28905e-06
3.17851e-08
4.26745e-06
2.97405e-08
4.24904e-06
2.73525e-08
4.23293e-06
2.53579e-08
4.21895e-06
2.31332e-08
4.20654e-06
2.14298e-08
4.19572e-06
1.96189e-08
4.18604e-06
1.84754e-08
4.17766e-06
1.74481e-08
4.17031e-06
1.74032e-08
4.16447e-06
1.86726e-08
4.16061e-06
2.33141e-08
4.16081e-06
3.71964e-08
1.20535e-07
4.15145e-06
3.94626e-06
-3.58194e-07
3.87946e-06
-3.80442e-07
3.81839e-06
-2.77329e-07
3.75891e-06
-1.76652e-07
3.70122e-06
-8.98962e-08
3.64725e-06
-2.78057e-08
3.59797e-06
9.72317e-09
3.55362e-06
3.12032e-08
3.51605e-06
4.30969e-08
3.48559e-06
4.90246e-08
3.46281e-06
5.09188e-08
3.44619e-06
5.023e-08
3.4348e-06
4.79262e-08
3.42685e-06
4.47338e-08
3.42168e-06
4.10855e-08
3.41818e-06
3.74535e-08
3.41617e-06
3.39653e-08
3.41494e-06
3.08366e-08
3.41448e-06
2.79547e-08
3.41427e-06
2.54181e-08
3.41446e-06
2.30883e-08
3.41465e-06
2.10924e-08
3.4151e-06
1.93144e-08
3.41553e-06
1.79143e-08
3.41627e-06
1.68552e-08
3.4172e-06
1.63548e-08
3.41913e-06
1.70095e-08
3.42262e-06
1.94476e-08
3.43259e-06
2.65985e-08
1.22596e-07
3.43083e-06
2.65545e-06
-3.85337e-07
2.58345e-06
-3.08426e-07
2.49249e-06
-1.8637e-07
2.40885e-06
-9.28287e-08
2.34829e-06
-2.89817e-08
2.31402e-06
6.44927e-09
2.30185e-06
2.25416e-08
2.30476e-06
2.79165e-08
2.31783e-06
3.06541e-08
2.33598e-06
3.04238e-08
2.35703e-06
3.0372e-08
2.37841e-06
2.8514e-08
2.3996e-06
2.71349e-08
2.41943e-06
2.4666e-08
2.43803e-06
2.28232e-08
2.45486e-06
2.04106e-08
2.47034e-06
1.87594e-08
2.48421e-06
1.67489e-08
2.49693e-06
1.54736e-08
2.50827e-06
1.38302e-08
2.51872e-06
1.28732e-08
2.52804e-06
1.15294e-08
2.53672e-06
1.08827e-08
2.54455e-06
9.85544e-09
2.55208e-06
9.58427e-09
2.55919e-06
9.03568e-09
2.56719e-06
9.44828e-09
2.57647e-06
9.48642e-09
2.59565e-06
6.32586e-09
1.12536e-07
2.60622e-06
1.42509e-06
1.11666e-06
9.30295e-07
8.37471e-07
8.08489e-07
8.14947e-07
8.37483e-07
8.65408e-07
8.96056e-07
9.26487e-07
9.56854e-07
9.85374e-07
1.01251e-06
1.03718e-06
1.06e-06
1.08041e-06
1.09917e-06
1.11592e-06
1.13139e-06
1.14522e-06
1.15809e-06
1.16963e-06
1.1805e-06
1.19036e-06
1.19995e-06
1.20899e-06
1.21843e-06
1.2279e-06
1.23423e-06
1.34676e-06
1.35309e-06
1.92814e-10
1.35283e-06
2.60847e-10
1.35256e-06
2.69007e-10
1.35232e-06
2.39024e-10
1.35212e-06
2.01848e-10
1.35195e-06
1.72442e-10
1.35181e-06
1.47985e-10
1.35168e-06
1.25104e-10
1.35158e-06
1.0718e-10
1.35148e-06
9.59307e-11
1.35139e-06
8.93796e-11
1.35131e-06
8.43981e-11
1.35123e-06
7.93982e-11
1.35116e-06
7.31029e-11
1.35109e-06
6.60447e-11
1.35103e-06
6.0944e-11
1.35096e-06
6.03727e-11
1.35089e-06
6.60016e-11
1.35082e-06
7.5636e-11
1.35073e-06
8.67566e-11
1.35064e-06
9.40907e-11
1.35056e-06
9.50771e-11
1.35047e-06
8.85829e-11
1.3504e-06
7.68067e-11
1.35034e-06
6.55925e-11
1.35029e-06
5.52953e-11
1.35024e-06
4.57804e-11
1.35021e-06
3.57028e-11
1.35017e-06
3.18598e-11
1.35014e-06
3.09009e-11
1.3501e-06
2.79547e-11
1.35007e-06
2.52282e-11
1.35004e-06
3.06012e-11
1.35e-06
3.59387e-11
1.34996e-06
3.5849e-11
1.34991e-06
4.15546e-11
1.34986e-06
5.19104e-11
1.34981e-06
5.31807e-11
1.34975e-06
5.63396e-11
1.34968e-06
7.04996e-11
1.34961e-06
7.35565e-11
1.34953e-06
7.65225e-11
1.34943e-06
1.00317e-10
1.34926e-06
1.67587e-10
1.3488e-06
4.60544e-10
1.34719e-06
1.60994e-09
1.34256e-06
4.63911e-09
1.3325e-06
1.00584e-08
1.31532e-06
1.71797e-08
1.29086e-06
2.44593e-08
1.26032e-06
3.05367e-08
1.22541e-06
3.49162e-08
1.18763e-06
3.77741e-08
1.14814e-06
3.94893e-08
1.10776e-06
4.03837e-08
1.06708e-06
4.06799e-08
1.02655e-06
4.05307e-08
9.86503e-07
4.0046e-08
9.47194e-07
3.93083e-08
9.08813e-07
3.83813e-08
8.71498e-07
3.73153e-08
8.35346e-07
3.61512e-08
8.00424e-07
3.49224e-08
7.66769e-07
3.36554e-08
7.34398e-07
3.23705e-08
7.03315e-07
3.10828e-08
6.73511e-07
2.98039e-08
6.44968e-07
2.85432e-08
6.17659e-07
2.73087e-08
5.91553e-07
2.61066e-08
5.66612e-07
2.49413e-08
5.42796e-07
2.38154e-08
5.20066e-07
2.27301e-08
4.9838e-07
2.16864e-08
4.77695e-07
2.06846e-08
4.5797e-07
1.97247e-08
4.39164e-07
1.88064e-08
4.21235e-07
1.7929e-08
4.04143e-07
1.70916e-08
3.8785e-07
1.6293e-08
3.72318e-07
1.55321e-08
3.57511e-07
1.48074e-08
3.43393e-07
1.41176e-08
3.29932e-07
1.34614e-08
3.17095e-07
1.28372e-08
3.04851e-07
1.22438e-08
2.93171e-07
1.16797e-08
2.82028e-07
1.11435e-08
2.71394e-07
1.0634e-08
2.61244e-07
1.01498e-08
2.51554e-07
9.68966e-09
2.42302e-07
9.25245e-09
2.33465e-07
8.83697e-09
2.25023e-07
8.44213e-09
2.16956e-07
8.06687e-09
2.09246e-07
7.71018e-09
2.01875e-07
7.37109e-09
1.94826e-07
7.04869e-09
1.88084e-07
6.74211e-09
1.81633e-07
6.45052e-09
1.7546e-07
6.17314e-09
1.69551e-07
5.90921e-09
1.63893e-07
5.65803e-09
1.58474e-07
5.41894e-09
1.53283e-07
5.19129e-09
1.48308e-07
4.97448e-09
1.4354e-07
4.76796e-09
1.38969e-07
4.57117e-09
1.34585e-07
4.38361e-09
1.30381e-07
4.2048e-09
1.26346e-07
4.03428e-09
1.22475e-07
3.87161e-09
1.18758e-07
3.71639e-09
1.1519e-07
3.56822e-09
1.11763e-07
3.42673e-09
1.08472e-07
3.29159e-09
1.05309e-07
3.16247e-09
1.0227e-07
3.03904e-09
9.93493e-08
2.921e-09
9.65412e-08
2.80809e-09
9.38411e-08
2.70002e-09
9.12446e-08
2.59653e-09
8.87472e-08
2.49738e-09
8.63449e-08
2.40231e-09
8.40338e-08
2.31112e-09
8.18103e-08
2.2235e-09
7.9671e-08
2.13934e-09
7.76128e-08
2.05815e-09
7.56327e-08
1.9801e-09
7.37287e-08
1.90402e-09
7.18975e-08
1.83126e-09
7.01395e-08
1.75795e-09
6.84492e-08
1.69028e-09
6.68351e-08
1.61408e-09
6.52805e-08
1.55469e-09
6.38217e-08
1.45877e-09
6.23963e-08
1.42538e-09
6.11403e-08
1.25601e-09
5.98319e-08
1.30843e-09
8.11872e-10
3.5558e-06
7.4884e-10
3.55506e-06
9.94757e-10
3.55433e-06
1.00569e-09
3.55369e-06
8.75995e-10
3.55317e-06
7.32374e-10
3.55272e-06
6.25396e-10
3.55233e-06
5.34849e-10
3.55201e-06
4.50274e-10
3.55173e-06
3.86886e-10
3.55148e-06
3.49252e-10
3.55125e-06
3.26801e-10
3.55103e-06
3.09291e-10
3.55082e-06
2.91243e-10
3.55062e-06
2.68624e-10
3.55044e-06
2.447e-10
3.55027e-06
2.2837e-10
3.5501e-06
2.28395e-10
3.54992e-06
2.48707e-10
3.54971e-06
2.81603e-10
3.54948e-06
3.17343e-10
3.54924e-06
3.4092e-10
3.549e-06
3.42201e-10
3.54878e-06
3.17895e-10
3.54859e-06
2.77936e-10
3.54842e-06
2.40074e-10
3.54828e-06
2.08626e-10
3.54815e-06
1.74996e-10
3.54805e-06
1.41193e-10
3.54795e-06
1.27967e-10
3.54785e-06
1.26817e-10
3.54776e-06
1.14715e-10
3.54767e-06
1.04753e-10
3.54757e-06
1.23241e-10
3.54745e-06
1.38355e-10
3.54735e-06
1.33777e-10
3.54722e-06
1.58724e-10
3.54707e-06
1.9965e-10
3.54692e-06
2.00229e-10
3.54677e-06
2.1206e-10
3.54656e-06
2.82525e-10
3.54619e-06
4.41082e-10
3.54521e-06
1.05655e-09
3.54235e-06
2.95583e-09
3.53506e-06
7.4615e-09
3.51994e-06
1.55835e-08
3.49442e-06
2.71337e-08
3.45791e-06
4.11442e-08
3.41141e-06
5.65626e-08
3.35594e-06
7.2647e-08
3.2917e-06
8.8701e-08
3.21854e-06
1.037e-07
3.13693e-06
1.16522e-07
3.04823e-06
1.26474e-07
2.95425e-06
1.33471e-07
2.85679e-06
1.37839e-07
2.75743e-06
1.40046e-07
2.65742e-06
1.4054e-07
2.55777e-06
1.39698e-07
2.45925e-06
1.3782e-07
2.36249e-06
1.35147e-07
2.26793e-06
1.31872e-07
2.17593e-06
1.28156e-07
2.08672e-06
1.2413e-07
2.00047e-06
1.19901e-07
1.91729e-06
1.15553e-07
1.83723e-06
1.11147e-07
1.7603e-06
1.06734e-07
1.68649e-06
1.02354e-07
1.61575e-06
9.80405e-08
1.54804e-06
9.38205e-08
1.48327e-06
8.97133e-08
1.42135e-06
8.57314e-08
1.3622e-06
8.18825e-08
1.30572e-06
7.81717e-08
1.2518e-06
7.46023e-08
1.20035e-06
7.11759e-08
1.15126e-06
6.78928e-08
1.10444e-06
6.47514e-08
1.05978e-06
6.17495e-08
1.01719e-06
5.88836e-08
9.76571e-07
5.615e-08
9.37834e-07
5.35444e-08
9.00889e-07
5.10624e-08
8.65651e-07
4.86994e-08
8.32038e-07
4.64506e-08
7.9997e-07
4.43112e-08
7.69374e-07
4.22764e-08
7.40176e-07
4.03417e-08
7.12307e-07
3.85022e-08
6.85703e-07
3.67536e-08
6.60302e-07
3.50915e-08
6.36043e-07
3.35115e-08
6.1287e-07
3.20097e-08
5.9073e-07
3.05821e-08
5.69572e-07
2.9225e-08
5.49347e-07
2.79348e-08
5.3001e-07
2.6708e-08
5.11518e-07
2.55414e-08
4.93828e-07
2.44318e-08
4.76902e-07
2.33764e-08
4.60703e-07
2.23722e-08
4.45195e-07
2.14166e-08
4.30346e-07
2.05071e-08
4.16124e-07
1.96413e-08
4.02499e-07
1.88168e-08
3.89442e-07
1.80315e-08
3.76926e-07
1.72834e-08
3.64927e-07
1.65705e-08
3.53419e-07
1.5891e-08
3.42381e-07
1.52432e-08
3.3179e-07
1.46253e-08
3.21626e-07
1.40359e-08
3.11869e-07
1.34734e-08
3.02501e-07
1.29364e-08
2.93504e-07
1.24237e-08
2.84861e-07
1.19339e-08
2.76558e-07
1.14659e-08
2.68578e-07
1.10185e-08
2.60909e-07
1.05907e-08
2.53535e-07
1.01814e-08
2.46446e-07
9.78969e-09
2.39628e-07
9.41455e-09
2.3307e-07
9.05513e-09
2.26762e-07
8.7105e-09
2.20693e-07
8.37991e-09
2.14854e-07
8.06228e-09
2.09236e-07
7.75716e-09
2.03832e-07
7.46281e-09
1.98632e-07
7.17986e-09
1.93632e-07
6.90402e-09
1.88823e-07
6.64022e-09
1.84206e-07
6.37445e-09
1.79768e-07
6.12905e-09
1.75529e-07
5.85289e-09
1.71446e-07
5.63733e-09
1.67615e-07
5.29e-09
1.63872e-07
5.16802e-09
1.60573e-07
4.55556e-09
1.57139e-07
4.74266e-09
2.94675e-09
5.12512e-06
1.6951e-09
5.12392e-06
2.19193e-09
5.12279e-06
2.14605e-09
5.12186e-06
1.81109e-09
5.1211e-06
1.49303e-09
5.12045e-06
1.27322e-09
5.11991e-06
1.08291e-09
5.11946e-06
9.07137e-10
5.11906e-06
7.81653e-10
5.11871e-06
7.09408e-10
5.11837e-06
6.67743e-10
5.11804e-06
6.38149e-10
5.11774e-06
6.0411e-10
5.11745e-06
5.5606e-10
5.11719e-06
5.01976e-10
5.11694e-06
4.62649e-10
5.11669e-06
4.62574e-10
5.11642e-06
5.07626e-10
5.11612e-06
5.83513e-10
5.11578e-06
6.65881e-10
5.11542e-06
7.20104e-10
5.11506e-06
7.23182e-10
5.11474e-06
6.6744e-10
5.11445e-06
5.78861e-10
5.11421e-06
4.96524e-10
5.11399e-06
4.33378e-10
5.1138e-06
3.59659e-10
5.11365e-06
2.91395e-10
5.1135e-06
2.66374e-10
5.11334e-06
2.67434e-10
5.11321e-06
2.38503e-10
5.11307e-06
2.24597e-10
5.11291e-06
2.75545e-10
5.11273e-06
3.04827e-10
5.11257e-06
2.85466e-10
5.11238e-06
3.49158e-10
5.11206e-06
5.15271e-10
5.11133e-06
9.22002e-10
5.10933e-06
2.21597e-09
5.10409e-06
5.52056e-09
5.09221e-06
1.23226e-08
5.06981e-06
2.34531e-08
5.03441e-06
3.83553e-08
4.98611e-06
5.57659e-08
4.92711e-06
7.45873e-08
4.85995e-06
9.42914e-08
4.78638e-06
1.14715e-07
4.70719e-06
1.35756e-07
4.62262e-06
1.57218e-07
4.53251e-06
1.78813e-07
4.43625e-06
1.9996e-07
4.33312e-06
2.19652e-07
4.22286e-06
2.36735e-07
4.10597e-06
2.50363e-07
3.98357e-06
2.60231e-07
3.85713e-06
2.6649e-07
3.72812e-06
2.69552e-07
3.59791e-06
2.69906e-07
3.4677e-06
2.68031e-07
3.33849e-06
2.64357e-07
3.2111e-06
2.59261e-07
3.08618e-06
2.53071e-07
2.96424e-06
2.46068e-07
2.84566e-06
2.38485e-07
2.7307e-06
2.30512e-07
2.61956e-06
2.22294e-07
2.51234e-06
2.13949e-07
2.40912e-06
2.05576e-07
2.3099e-06
1.97257e-07
2.21467e-06
1.89058e-07
2.12335e-06
1.81029e-07
2.03588e-06
1.73204e-07
1.95215e-06
1.65607e-07
1.87207e-06
1.58254e-07
1.79551e-06
1.51158e-07
1.72236e-06
1.44327e-07
1.65249e-06
1.37764e-07
1.58577e-06
1.31472e-07
1.52207e-06
1.25446e-07
1.46127e-06
1.19684e-07
1.40324e-06
1.1418e-07
1.34786e-06
1.08926e-07
1.29501e-06
1.03915e-07
1.24457e-06
9.91395e-08
1.19643e-06
9.45902e-08
1.15048e-06
9.02586e-08
1.10662e-06
8.61356e-08
1.06475e-06
8.22124e-08
1.02477e-06
7.84801e-08
9.86597e-07
7.493e-08
9.50135e-07
7.15537e-08
9.15303e-07
6.83429e-08
8.82024e-07
6.52896e-08
8.5022e-07
6.2386e-08
8.1982e-07
5.96248e-08
7.90756e-07
5.69988e-08
7.62962e-07
5.45013e-08
7.36378e-07
5.21255e-08
7.10945e-07
4.98654e-08
6.86606e-07
4.7715e-08
6.6331e-07
4.56687e-08
6.41005e-07
4.3721e-08
6.19645e-07
4.18669e-08
5.99185e-07
4.01014e-08
5.79582e-07
3.84201e-08
5.60795e-07
3.68186e-08
5.42786e-07
3.52926e-08
5.25518e-07
3.38383e-08
5.08957e-07
3.2452e-08
4.9307e-07
3.113e-08
4.77826e-07
2.98692e-08
4.63196e-07
2.86663e-08
4.49151e-07
2.75183e-08
4.35665e-07
2.64223e-08
4.22713e-07
2.53757e-08
4.10271e-07
2.43758e-08
3.98317e-07
2.34204e-08
3.86828e-07
2.2507e-08
3.75785e-07
2.16336e-08
3.65169e-07
2.07979e-08
3.5496e-07
1.9998e-08
3.45143e-07
1.9232e-08
3.357e-07
1.8498e-08
3.26616e-07
1.77942e-08
3.17877e-07
1.71191e-08
3.09469e-07
1.64704e-08
3.01379e-07
1.58472e-08
2.93596e-07
1.5246e-08
2.86108e-07
1.46681e-08
2.78907e-07
1.41047e-08
2.71981e-07
1.35659e-08
2.65333e-07
1.3023e-08
2.5894e-07
1.25217e-08
2.52835e-07
1.19577e-08
2.46955e-07
1.15172e-08
2.41437e-07
1.08079e-08
2.36047e-07
1.05584e-08
2.31295e-07
9.30773e-09
2.26349e-07
9.68892e-09
6.02149e-09
6.19578e-06
3.09749e-09
6.1941e-06
3.87909e-09
6.19261e-06
3.6401e-09
6.19147e-06
2.95177e-09
6.19056e-06
2.40199e-09
6.1898e-06
2.04779e-09
6.18916e-06
1.725e-09
6.18863e-06
1.43677e-09
6.18818e-06
1.24677e-09
6.18775e-06
1.14183e-09
6.18735e-06
1.08266e-09
6.18695e-06
1.04123e-09
6.18656e-06
9.88728e-10
6.18621e-06
9.09464e-10
6.18589e-06
8.17959e-10
6.1856e-06
7.54329e-10
6.1853e-06
7.56429e-10
6.18498e-06
8.32351e-10
6.18461e-06
9.58664e-10
6.18418e-06
1.09207e-09
6.18373e-06
1.18256e-09
6.18328e-06
1.1861e-09
6.18287e-06
1.09154e-09
6.18251e-06
9.45999e-10
6.18221e-06
8.18774e-10
6.18194e-06
7.20791e-10
6.18171e-06
5.97655e-10
6.18152e-06
4.85273e-10
6.18133e-06
4.58418e-10
6.18112e-06
4.6119e-10
6.18095e-06
3.9558e-10
6.18078e-06
3.73606e-10
6.18051e-06
5.25589e-10
6.17992e-06
8.77605e-10
6.17831e-06
1.88508e-09
6.17412e-06
4.52816e-09
6.16444e-06
1.01863e-08
6.14513e-06
2.02298e-08
6.11255e-06
3.47995e-08
6.06532e-06
5.27482e-08
6.00502e-06
7.26278e-08
5.93492e-06
9.35508e-08
5.85797e-06
1.15307e-07
5.77591e-06
1.37828e-07
5.68954e-06
1.60961e-07
5.59936e-06
1.84467e-07
5.50592e-06
2.08158e-07
5.40964e-06
2.32034e-07
5.31069e-06
2.56177e-07
5.20886e-06
2.80638e-07
5.10358e-06
3.05247e-07
4.99387e-06
3.29361e-07
4.87874e-06
3.51863e-07
4.75759e-06
3.71509e-07
4.63048e-06
3.87348e-07
4.49804e-06
3.98922e-07
4.36136e-06
4.06234e-07
4.22168e-06
4.09587e-07
4.08027e-06
4.09438e-07
3.93834e-06
4.06292e-07
3.79694e-06
4.00661e-07
3.65698e-06
3.93025e-07
3.51923e-06
3.83823e-07
3.38428e-06
3.73438e-07
3.2526e-06
3.62186e-07
3.12457e-06
3.50327e-07
3.00044e-06
3.38074e-07
2.88041e-06
3.25609e-07
2.76458e-06
3.13085e-07
2.65301e-06
3.00628e-07
2.5457e-06
2.88335e-07
2.44263e-06
2.76276e-07
2.34374e-06
2.64502e-07
2.24894e-06
2.53053e-07
2.15814e-06
2.41958e-07
2.07123e-06
2.31239e-07
1.98808e-06
2.20909e-07
1.90858e-06
2.10977e-07
1.83258e-06
2.01445e-07
1.75995e-06
1.92309e-07
1.69057e-06
1.83566e-07
1.62429e-06
1.75207e-07
1.56098e-06
1.67222e-07
1.50052e-06
1.59602e-07
1.44277e-06
1.52335e-07
1.38762e-06
1.45408e-07
1.33495e-06
1.38808e-07
1.28464e-06
1.32523e-07
1.23658e-06
1.26539e-07
1.19067e-06
1.20843e-07
1.1468e-06
1.15422e-07
1.10488e-06
1.10264e-07
1.06481e-06
1.05356e-07
1.02651e-06
1.00687e-07
9.8989e-07
9.62451e-08
9.5487e-07
9.20188e-08
9.21374e-07
8.79977e-08
8.89328e-07
8.41715e-08
8.58663e-07
8.05304e-08
8.29313e-07
7.70651e-08
8.01215e-07
7.37666e-08
7.7431e-07
7.06263e-08
7.4854e-07
6.76363e-08
7.23853e-07
6.47888e-08
7.00197e-07
6.20765e-08
6.77523e-07
5.94923e-08
6.55786e-07
5.70297e-08
6.34942e-07
5.46825e-08
6.14949e-07
5.24447e-08
5.95768e-07
5.03106e-08
5.77363e-07
4.82749e-08
5.59697e-07
4.63324e-08
5.42736e-07
4.44785e-08
5.2645e-07
4.27084e-08
5.10808e-07
4.10179e-08
4.95781e-07
3.94028e-08
4.81342e-07
3.78594e-08
4.67465e-07
3.63838e-08
4.54126e-07
3.49726e-08
4.41302e-07
3.36223e-08
4.2897e-07
3.23298e-08
4.1711e-07
3.1092e-08
4.05702e-07
2.99059e-08
3.94728e-07
2.87686e-08
3.84169e-07
2.76774e-08
3.74011e-07
2.6629e-08
3.64236e-07
2.56218e-08
3.54832e-07
2.46502e-08
3.45784e-07
2.3716e-08
3.37083e-07
2.28053e-08
3.28715e-07
2.19343e-08
3.20681e-07
2.10568e-08
3.12957e-07
2.02464e-08
3.0558e-07
1.93345e-08
2.98474e-07
1.86225e-08
2.91807e-07
1.74756e-08
2.85293e-07
1.70724e-08
2.7955e-07
1.50499e-08
2.73572e-07
1.56671e-08
9.73588e-09
6.87591e-06
5.04057e-09
6.8737e-06
6.09188e-09
6.87191e-06
5.42593e-09
6.87067e-06
4.20142e-09
6.86969e-06
3.38404e-09
6.86886e-06
2.87997e-09
6.86819e-06
2.398e-09
6.86764e-06
1.99145e-09
6.86715e-06
1.73909e-09
6.8667e-06
1.60069e-09
6.86625e-06
1.53239e-09
6.86581e-06
1.4947e-09
6.86537e-06
1.42993e-09
6.86498e-06
1.3057e-09
6.86463e-06
1.15625e-09
6.86432e-06
1.04767e-09
6.864e-06
1.04763e-09
6.86364e-06
1.17427e-09
6.86322e-06
1.37685e-09
6.86274e-06
1.59879e-09
6.86221e-06
1.74177e-09
6.8617e-06
1.74477e-09
6.86123e-06
1.59016e-09
6.86084e-06
1.36456e-09
6.86049e-06
1.18521e-09
6.86017e-06
1.04418e-09
6.85992e-06
8.4814e-10
6.8597e-06
6.8532e-10
6.85943e-06
7.201e-10
6.85885e-06
1.01419e-09
6.85735e-06
1.87212e-09
6.85351e-06
4.18912e-09
6.84484e-06
9.18358e-09
6.82738e-06
1.83199e-08
6.79697e-06
3.22974e-08
6.75124e-06
5.02515e-08
6.69085e-06
7.0576e-08
6.6191e-06
9.1973e-08
6.53986e-06
1.14044e-07
6.45571e-06
1.36889e-07
6.36791e-06
1.60436e-07
6.277e-06
1.8446e-07
6.18354e-06
2.08765e-07
6.08817e-06
2.33203e-07
5.99138e-06
2.57751e-07
5.89343e-06
2.82418e-07
5.79442e-06
3.07171e-07
5.69438e-06
3.32073e-07
5.59326e-06
3.573e-07
5.49082e-06
3.8308e-07
5.38655e-06
4.09515e-07
5.2796e-06
4.36312e-07
5.16886e-06
4.62606e-07
5.05327e-06
4.87103e-07
4.93215e-06
5.08464e-07
4.80541e-06
5.25667e-07
4.67347e-06
5.38168e-07
4.53719e-06
5.4587e-07
4.39763e-06
5.48997e-07
4.25595e-06
5.47974e-07
4.11327e-06
5.43332e-07
3.97066e-06
5.35643e-07
3.82901e-06
5.25468e-07
3.68913e-06
5.13322e-07
3.55166e-06
4.99655e-07
3.41714e-06
4.8485e-07
3.28598e-06
4.69231e-07
3.15851e-06
4.5308e-07
3.03495e-06
4.36641e-07
2.91547e-06
4.20115e-07
2.80014e-06
4.03661e-07
2.68902e-06
3.87399e-07
2.5821e-06
3.71421e-07
2.47935e-06
3.55799e-07
2.38072e-06
3.40589e-07
2.28612e-06
3.25836e-07
2.19546e-06
3.11569e-07
2.10863e-06
2.97809e-07
2.02551e-06
2.84567e-07
1.94597e-06
2.71846e-07
1.86989e-06
2.59645e-07
1.79714e-06
2.47958e-07
1.72759e-06
2.36777e-07
1.6611e-06
2.2609e-07
1.59755e-06
2.15884e-07
1.53682e-06
2.06144e-07
1.47877e-06
1.96855e-07
1.42329e-06
1.87999e-07
1.37027e-06
1.79561e-07
1.31959e-06
1.71522e-07
1.27115e-06
1.63866e-07
1.22484e-06
1.56577e-07
1.18055e-06
1.49638e-07
1.13821e-06
1.43032e-07
1.09771e-06
1.36744e-07
1.05897e-06
1.30759e-07
1.02191e-06
1.25062e-07
9.86437e-07
1.1964e-07
9.52489e-07
1.14478e-07
9.1999e-07
1.09564e-07
8.88872e-07
1.04885e-07
8.5907e-07
1.00429e-07
8.30521e-07
9.61853e-08
8.03167e-07
9.2143e-08
7.76951e-07
8.82918e-08
7.51822e-07
8.4622e-08
7.27727e-07
8.11242e-08
7.0462e-07
7.77897e-08
6.82454e-07
7.46102e-08
6.61187e-07
7.15776e-08
6.40778e-07
6.86844e-08
6.21187e-07
6.59236e-08
6.02377e-07
6.32881e-08
5.84314e-07
6.07717e-08
5.66963e-07
5.83681e-08
5.50295e-07
5.60717e-08
5.34277e-07
5.38769e-08
5.18882e-07
5.17784e-08
5.04084e-07
4.97713e-08
4.89855e-07
4.78508e-08
4.76173e-07
4.60124e-08
4.63013e-07
4.42515e-08
4.50355e-07
4.25643e-08
4.38177e-07
4.09462e-08
4.26461e-07
3.93939e-08
4.15187e-07
3.79022e-08
4.0434e-07
3.64692e-08
3.93904e-07
3.50866e-08
3.83862e-07
3.37574e-08
3.74206e-07
3.24615e-08
3.64918e-07
3.1222e-08
3.56002e-07
2.99732e-08
3.47428e-07
2.882e-08
3.39241e-07
2.75221e-08
3.31354e-07
2.6509e-08
3.23954e-07
2.48762e-08
3.16723e-07
2.4303e-08
3.1035e-07
2.14229e-08
3.03714e-07
2.23037e-08
1.38573e-08
7.25385e-06
7.62715e-09
7.25109e-06
8.8589e-09
7.24911e-06
7.40941e-09
7.24785e-06
5.46696e-09
7.24685e-06
4.39603e-09
7.24601e-06
3.72693e-09
7.24536e-06
3.05173e-09
7.24482e-06
2.53569e-09
7.24433e-06
2.239e-09
7.24387e-06
2.07677e-09
7.24341e-06
2.00784e-09
7.24293e-06
1.97832e-09
7.24246e-06
1.89855e-09
7.24204e-06
1.72702e-09
7.24168e-06
1.5165e-09
7.24136e-06
1.36546e-09
7.24105e-06
1.36634e-09
7.24068e-06