/*--------------------------------*- C++ -*----------------------------------*\
| =========                 |                                                 |
| \\      /  F ield         | OpenFOAM: The Open Source CFD Toolbox           |
|  \\    /   O peration     | Version:  4.x                                   |
|   \\  /    A nd           | Web:      www.OpenFOAM.org                      |
|    \\/     M anipulation  |                                                 |
\*---------------------------------------------------------------------------*/
FoamFile
{
    version     2.0;
    format      ascii;
    class       volVectorField;
    location    "1";
    object      U;
}
// * * * * * * * * * * * * * * * * * * * * * * * * * * * * * * * * * * * * * //

dimensions      [0 1 -1 0 0 0 0];

internalField   nonuniform List<vector> 
11990
(
(7.15266 -0.00487854 5.83133e-18)
(7.1874 -0.00530683 1.22058e-17)
(7.22598 -0.00509615 2.06166e-17)
(7.25707 -0.00414942 1.60033e-17)
(7.27943 -0.00312311 7.27175e-17)
(7.29569 -0.00233098 -9.18319e-17)
(7.30801 -0.00173861 6.27302e-16)
(7.31743 -0.00131863 1.99353e-15)
(7.32472 -0.00106604 2.80222e-15)
(7.33078 -0.000935837 3.0306e-15)
(7.33631 -0.000882969 2.87927e-15)
(7.34171 -0.0008795 2.76299e-15)
(7.34717 -0.000911318 2.66025e-15)
(7.35285 -0.000961743 2.56134e-15)
(7.35884 -0.00102246 2.54558e-15)
(7.36516 -0.00108441 2.28964e-15)
(7.37183 -0.00114609 2.75208e-15)
(7.37882 -0.00120272 3.06437e-15)
(7.38611 -0.00125532 3.20156e-15)
(7.39364 -0.0013008 3.18371e-15)
(7.4014 -0.00134047 3.1473e-15)
(7.40932 -0.00137038 3.09346e-15)
(7.41735 -0.00138936 3.0114e-15)
(7.4254 -0.00138871 3.02637e-15)
(7.43336 -0.00135873 2.77855e-15)
(7.44099 -0.00127674 2.50195e-15)
(7.44796 -0.00111588 2.42606e-15)
(7.4537 -0.000837859 2.38901e-15)
(7.4576 -0.000434634 2.35809e-15)
(7.45879 4.35907e-05 2.3257e-15)
(7.15721 -0.0112272 -6.42693e-16)
(7.19204 -0.0123573 -9.35936e-16)
(7.23101 -0.011815 -9.8944e-16)
(7.26232 -0.00961006 -9.90004e-16)
(7.28462 -0.00727149 -9.8186e-16)
(7.30073 -0.00546094 -9.6997e-16)
(7.31292 -0.00409817 -9.72689e-16)
(7.32222 -0.00313423 -9.02938e-16)
(7.32941 -0.00255093 -1.09301e-15)
(7.33539 -0.00224388 -1.11805e-15)
(7.34087 -0.00210987 -1.10581e-15)
(7.34622 -0.00209056 -1.0851e-15)
(7.35165 -0.00215029 -1.06374e-15)
(7.3573 -0.00225521 -1.04381e-15)
(7.36327 -0.00238278 -1.02567e-15)
(7.36958 -0.00251636 -1.01024e-15)
(7.37623 -0.0026486 -9.96382e-16)
(7.38321 -0.00277228 -9.41938e-16)
(7.39048 -0.00288589 -1.04675e-15)
(7.39801 -0.00298605 -1.06131e-15)
(7.40575 -0.00307205 -9.32713e-16)
(7.41366 -0.00313864 -8.81233e-16)
(7.42169 -0.00317983 -8.45494e-16)
(7.42975 -0.00317976 -8.43118e-16)
(7.43771 -0.00311352 -7.8023e-16)
(7.44537 -0.00293352 -7.56065e-16)
(7.45239 -0.00257374 -7.48918e-16)
(7.45821 -0.00194662 -7.49767e-16)
(7.46217 -0.00102547 -7.52529e-16)
(7.46333 8.14272e-05 -7.53633e-16)
(7.16138 -0.0170632 -4.26638e-17)
(7.19657 -0.0192395 6.73812e-16)
(7.23639 -0.0183017 6.97064e-16)
(7.26813 -0.0147545 6.28362e-16)
(7.2903 -0.0111069 5.62694e-16)
(7.30614 -0.00828634 5.26671e-16)
(7.31809 -0.00616297 4.578e-16)
(7.32716 -0.00468352 5.97514e-16)
(7.33416 -0.00380541 5.87749e-16)
(7.34001 -0.00335018 6.27997e-16)
(7.34539 -0.00316083 7.8693e-16)
(7.35068 -0.00314694 8.00587e-16)
(7.35606 -0.00325447 8.0614e-16)
(7.36168 -0.00342833 8.08078e-16)
(7.36762 -0.00363661 8.08726e-16)
(7.37391 -0.00385129 8.04305e-16)
(7.38055 -0.00406375 8.03501e-16)
(7.38752 -0.00426054 7.78015e-16)
(7.39478 -0.00444199 8.42365e-16)
(7.40229 -0.00460077 8.45961e-16)
(7.41002 -0.00473822 8.4662e-16)
(7.41793 -0.00484446 8.10938e-16)
(7.42596 -0.00491287 7.80653e-16)
(7.43403 -0.00491779 7.55225e-16)
(7.44203 -0.00482382 7.7395e-16)
(7.44976 -0.00455545 7.72938e-16)
(7.45689 -0.00400958 7.37508e-16)
(7.46285 -0.00303504 7.18285e-16)
(7.46694 -0.001574 7.1097e-16)
(7.46806 0.000231214 7.0271e-16)
(7.16199 -0.0227996 -3.26248e-17)
(7.19794 -0.0262066 1.82384e-16)
(7.239 -0.0246781 4.08418e-16)
(7.27128 -0.0197015 6.43582e-16)
(7.29324 -0.0147924 7.1001e-16)
(7.30872 -0.0109953 7.95266e-16)
(7.32035 -0.00813833 6.78015e-16)
(7.32912 -0.006184 6.3306e-16)
(7.33587 -0.00504265 6.48727e-16)
(7.34155 -0.00445318 5.07e-16)
(7.34682 -0.00421162 4.77817e-16)
(7.35202 -0.0042018 3.90149e-16)
(7.35734 -0.00435006 4.04722e-16)
(7.36291 -0.00458427 3.99702e-16)
(7.36883 -0.00486212 4.80458e-16)
(7.3751 -0.00514809 4.50986e-16)
(7.38173 -0.00542996 5.4348e-16)
(7.38868 -0.00569118 5.87285e-16)
(7.39593 -0.00593169 5.96118e-16)
(7.40343 -0.0061429 5.96586e-16)
(7.41116 -0.00632614 5.99198e-16)
(7.41906 -0.00646962 5.98709e-16)
(7.42709 -0.0065648 5.95306e-16)
(7.43518 -0.00658003 5.88097e-16)
(7.44322 -0.00646987 5.85763e-16)
(7.45104 -0.00613622 5.60827e-16)
(7.45832 -0.00543751 5.22724e-16)
(7.46448 -0.00415133 5.1076e-16)
(7.46878 -0.00216449 4.99696e-16)
(7.46986 0.000394079 4.97332e-16)
(7.15759 -0.0280666 3.76412e-17)
(7.19472 -0.0329013 -1.81826e-16)
(7.23737 -0.0305771 -2.31071e-16)
(7.27022 -0.0241306 -2.37424e-16)
(7.2919 -0.0180424 -2.39472e-16)
(7.30695 -0.0133191 -2.12245e-16)
(7.3182 -0.00978074 -2.89368e-16)
(7.32662 -0.00741535 -4.21375e-16)
(7.33309 -0.00606042 -4.47908e-16)
(7.33857 -0.00536451 -4.48811e-16)
(7.34372 -0.00508909 -4.42596e-16)
(7.34882 -0.00509336 -4.42996e-16)
(7.35408 -0.0052878 -4.21934e-16)
(7.35962 -0.00558204 -4.81563e-16)
(7.3655 -0.00592829 -4.43106e-16)
(7.37176 -0.006281 -4.89473e-16)
(7.37837 -0.00662842 -4.89877e-16)
(7.38532 -0.00694798 -5.02553e-16)
(7.39256 -0.00724299 -4.55243e-16)
(7.40005 -0.00750066 -3.56516e-16)
(7.40778 -0.00772597 -3.24733e-16)
(7.41568 -0.0079027 -3.19616e-16)
(7.42372 -0.00802483 -3.12057e-16)
(7.43183 -0.00805347 -3.12234e-16)
(7.43992 -0.00793943 -2.75275e-16)
(7.44784 -0.00756294 -2.65346e-16)
(7.45531 -0.00674957 -2.65749e-16)
(7.46173 -0.00519328 -2.63695e-16)
(7.46631 -0.00269951 -2.58108e-16)
(7.46736 0.000690591 -2.53489e-16)
(7.14829 -0.0328897 6.03676e-20)
(7.18714 -0.0392947 1.52889e-18)
(7.23171 -0.0359497 -3.17232e-18)
(7.26513 -0.0280432 -6.75225e-18)
(7.28649 -0.0208719 -8.57064e-18)
(7.30109 -0.0152759 -1.05413e-17)
(7.31192 -0.011123 -1.30135e-17)
(7.31995 -0.0084205 -1.63502e-17)
(7.32612 -0.00690505 -2.02259e-17)
(7.33142 -0.00613498 -2.44463e-17)
(7.33644 -0.00584681 -2.82253e-17)
(7.34146 -0.0058791 -3.26929e-17)
(7.34666 -0.00612577 -3.71058e-17)
(7.35216 -0.00648387 -4.10755e-17)
(7.35803 -0.00689821 -4.42956e-17)
(7.36428 -0.00731827 -4.67152e-17)
(7.37089 -0.0077292 -4.91372e-17)
(7.37783 -0.00810715 -5.15215e-17)
(7.38507 -0.00845504 -5.37969e-17)
(7.39257 -0.00875993 -5.51311e-17)
(7.4003 -0.00902655 -5.66589e-17)
(7.40821 -0.00923825 -5.60583e-17)
(7.41626 -0.00938853 -6.49294e-17)
(7.4244 -0.00943663 -4.08458e-17)
(7.43256 -0.00932929 -3.44641e-17)
(7.44059 -0.00893376 -3.40816e-17)
(7.44827 -0.00804321 -3.4608e-17)
(7.455 -0.00626572 -3.7468e-17)
(7.45995 -0.00329054 -3.93321e-17)
(7.461 0.00103258 -3.89737e-17)
(7.13563 -0.03798 -3.93902e-18)
(7.17674 -0.0458922 3.95619e-17)
(7.22349 -0.0411792 -1.921e-16)
(7.25743 -0.0317845 -2.14727e-16)
(7.2784 -0.0235533 -1.71826e-16)
(7.29252 -0.017081 -1.53091e-16)
(7.30289 -0.0123481 -1.50593e-16)
(7.3105 -0.00934786 -1.51322e-16)
(7.31637 -0.00769447 -1.53268e-16)
(7.32147 -0.00685646 -1.64747e-16)
(7.32635 -0.00655876 -1.46792e-16)
(7.33127 -0.00661414 -1.72341e-16)
(7.33641 -0.00690579 -2.86868e-16)
(7.34187 -0.00731569 -2.60804e-16)
(7.34771 -0.00778644 -1.89473e-16)
(7.35394 -0.0082595 -1.20687e-16)
(7.36054 -0.00872124 -1.72395e-16)
(7.36747 -0.00914362 -1.86975e-16)
(7.3747 -0.00953348 -2.43677e-16)
(7.3822 -0.00987504 -2.41243e-16)
(7.38991 -0.0101768 -2.31432e-16)
(7.39782 -0.0104186 -2.25791e-16)
(7.40587 -0.0105971 -2.226e-16)
(7.41403 -0.0106667 -2.18404e-16)
(7.42224 -0.0105754 -2.1335e-16)
(7.43037 -0.0101787 -2.08116e-16)
(7.43825 -0.0092455 -2.02608e-16)
(7.4453 -0.00729673 -1.98604e-16)
(7.45071 -0.00386743 -1.94012e-16)
(7.45178 0.00152054 -1.87603e-16)
(7.12016 -0.0426735 1.51257e-19)
(7.16394 -0.0520815 2.90864e-20)
(7.21292 -0.0457785 1.23896e-18)
(7.24714 -0.0349948 -1.32636e-18)
(7.26758 -0.0257723 -3.92484e-18)
(7.28114 -0.0184689 -6.80673e-18)
(7.29094 -0.013242 -7.93963e-18)
(7.29805 -0.0100188 -1.63432e-17)
(7.30357 -0.0082774 6.59865e-18)
(7.30841 -0.00740424 -1.92932e-17)
(7.31311 -0.00712244 -1.24589e-16)
(7.31789 -0.0072206 -1.35384e-16)
(7.32291 -0.00757053 -1.16253e-16)
(7.32828 -0.00804594 -2.24927e-16)
(7.33404 -0.00858139 -2.33077e-16)
(7.34021 -0.0091183 -2.24016e-16)
(7.34674 -0.00963581 -2.19715e-16)
(7.35362 -0.0101093 -2.16159e-16)
(7.36079 -0.0105405 -2.15231e-16)
(7.36822 -0.0109187 -2.14491e-16)
(7.37588 -0.0112491 -2.13424e-16)
(7.38373 -0.0115179 -2.11987e-16)
(7.39174 -0.0117197 -2.09984e-16)
(7.39987 -0.0118144 -2.07534e-16)
(7.40808 -0.0117468 -2.04509e-16)
(7.41628 -0.0113723 -2.00891e-16)
(7.42433 -0.010434 -1.9683e-16)
(7.43171 -0.00837808 -1.92837e-16)
(7.43764 -0.00454244 -1.88825e-16)
(7.43876 0.00205839 -1.86487e-16)
(7.09774 -0.0476161 5.63251e-19)
(7.1447 -0.0582877 -4.26854e-18)
(7.19588 -0.050142 1.9201e-17)
(7.23017 -0.0380495 -6.01523e-18)
(7.24998 -0.0278357 -1.12182e-16)
(7.26288 -0.0197012 -1.18468e-16)
(7.27203 -0.0140285 -1.19778e-16)
(7.27859 -0.0106143 -1.19034e-16)
(7.2837 -0.00880076 -1.18507e-16)
(7.28826 -0.00789032 -1.17555e-16)
(7.29272 -0.00761807 -1.16199e-16)
(7.2973 -0.00774152 -1.17222e-16)
(7.30216 -0.0081318 -1.0964e-16)
(7.30738 -0.00865128 -1.6202e-16)
(7.31302 -0.00923232 -1.50948e-16)
(7.31905 -0.00981529 -1.44856e-16)
(7.32547 -0.0103773 -1.49065e-16)
(7.33222 -0.010897 -1.50113e-16)
(7.33928 -0.0113722 -1.49093e-16)
(7.34661 -0.0117929 -1.46056e-16)
(7.35417 -0.0121587 -1.41764e-16)
(7.36193 -0.0124567 -1.3692e-16)
(7.36986 -0.0126804 -1.30548e-16)
(7.37793 -0.0127945 -1.26615e-16)
(7.3861 -0.0127475 -1.12874e-16)
(7.39429 -0.0124007 -1.0971e-16)
(7.4024 -0.0114822 -9.66504e-17)
(7.40991 -0.0093815 -8.85046e-17)
(7.41612 -0.0051922 -8.19282e-17)
(7.41683 0.00278823 -7.7779e-17)
(7.06475 -0.0526325 -1.78629e-18)
(7.11525 -0.0641788 1.0739e-17)
(7.16839 -0.0540129 -9.50657e-17)
(7.20235 -0.0407381 -7.3445e-17)
(7.22129 -0.0295638 -6.09944e-17)
(7.23328 -0.0206527 -7.0771e-17)
(7.24155 -0.0146145 -7.72635e-17)
(7.24734 -0.0110625 -6.10118e-17)
(7.25184 -0.00922187 -1.28299e-16)
(7.2559 -0.00831152 -7.68952e-17)
(7.2599 -0.00808229 -7.74271e-17)
(7.26407 -0.00825632 -6.09694e-17)
(7.26853 -0.00870443 -1.90159e-17)
(7.27336 -0.0092833 -6.38034e-17)
(7.27861 -0.00991165 -4.45457e-17)
(7.28427 -0.0105365 -1.83645e-17)
(7.2903 -0.0111201 9.78326e-17)
(7.29664 -0.0116619 8.67632e-17)
(7.30325 -0.0121519 9.34296e-17)
(7.31003 -0.0126034 1.02762e-16)
(7.31689 -0.0130039 1.09529e-16)
(7.3237 -0.0133538 1.10581e-16)
(7.33029 -0.0136274 1.03243e-16)
(7.33645 -0.013796 1.14649e-16)
(7.34192 -0.0137908 1.35072e-16)
(7.34642 -0.0134846 1.30112e-16)
(7.34968 -0.0125811 1.24693e-16)
(7.35112 -0.0104574 1.19092e-16)
(7.35023 -0.00594412 1.13747e-16)
(7.34233 0.00363981 1.08384e-16)
(7.01189 -0.0577604 2.15426e-19)
(7.06561 -0.0697321 -6.23558e-20)
(7.1195 -0.0574561 3.97248e-18)
(7.15188 -0.04305 -1.56848e-17)
(7.16882 -0.0308921 6.23275e-17)
(7.17887 -0.0212583 1.07579e-16)
(7.18529 -0.0149143 7.16185e-17)
(7.18943 -0.0112233 1.14992e-16)
(7.19247 -0.00933685 1.32675e-16)
(7.19516 -0.00839645 7.12231e-17)
(7.19783 -0.00818859 5.22067e-17)
(7.20066 -0.00838992 4.40749e-17)
(7.2037 -0.0088842 3.9718e-17)
(7.20699 -0.0095275 3.67877e-17)
(7.21044 -0.0102336 3.61085e-17)
(7.21385 -0.0109547 3.60149e-17)
(7.21693 -0.0116198 3.66051e-17)
(7.21926 -0.0122252 3.96596e-17)
(7.22035 -0.0127219 3.09949e-17)
(7.21963 -0.0131271 6.01499e-17)
(7.21655 -0.0134002 7.78486e-17)
(7.21059 -0.0135518 8.0965e-17)
(7.20133 -0.013535 7.51295e-17)
(7.18851 -0.013334 7.05154e-17)
(7.17209 -0.0128726 6.53997e-17)
(7.15226 -0.0120606 6.62618e-17)
(7.12955 -0.0106188 5.74085e-17)
(7.1045 -0.00800419 5.21846e-17)
(7.07803 -0.00285193 5.07712e-17)
(7.04657 0.0087215 5.06684e-17)
(6.91258 -0.0629624 -1.57168e-19)
(6.96583 -0.0748745 4.99663e-18)
(7.01548 -0.0606303 3.14657e-18)
(7.04152 -0.0451149 -6.16246e-18)
(7.05246 -0.0318954 -8.97965e-18)
(7.05723 -0.0216183 -8.01604e-18)
(7.05897 -0.0151011 -4.13026e-18)
(7.05891 -0.0113767 1.15826e-19)
(7.05793 -0.00950761 6.59363e-18)
(7.05649 -0.00856771 1.25224e-17)
(7.05448 -0.00838579 1.85235e-17)
(7.05157 -0.00858009 1.97445e-17)
(7.04718 -0.00902288 3.65311e-17)
(7.04053 -0.00952809 -2.47371e-17)
(7.03072 -0.00998854 -2.52698e-17)
(7.01686 -0.0103553 -1.15e-17)
(6.99823 -0.0105464 -8.11244e-20)
(6.97437 -0.0105719 5.319e-18)
(6.94528 -0.0103745 1.8393e-17)
(6.91137 -0.0100032 -9.25568e-18)
(6.87358 -0.00943626 -1.21819e-17)
(6.8331 -0.00874792 -7.46478e-18)
(6.79139 -0.00793456 -3.96145e-18)
(6.74979 -0.00705004 3.94639e-19)
(6.70958 -0.00605652 6.67696e-18)
(6.67166 -0.00492177 2.13786e-17)
(6.63681 -0.00338971 1.81129e-17)
(6.60538 -0.000983255 1.37425e-17)
(6.5777 0.00382572 2.04485e-17)
(6.55004 0.0164911 2.49835e-17)
(6.69973 -0.0663959 -7.89866e-18)
(6.73749 -0.0772312 -8.0418e-18)
(6.77111 -0.0614857 -2.91104e-17)
(6.78191 -0.0452717 -5.5357e-17)
(6.77989 -0.0311384 -1.35731e-17)
(6.77354 -0.0202747 -2.07321e-17)
(6.76496 -0.0136048 5.00373e-17)
(6.75413 -0.0098323 4.99066e-17)
(6.74048 -0.00790366 1.20922e-16)
(6.72297 -0.00674805 1.36324e-16)
(6.70024 -0.0062132 1.38265e-16)
(6.67117 -0.00588101 1.13769e-16)
(6.63513 -0.00565892 1.66417e-16)
(6.59222 -0.00537578 1.58428e-16)
(6.54352 -0.00494487 1.42273e-16)
(6.49071 -0.00438187 1.01384e-16)
(6.43619 -0.00366064 1.2267e-16)
(6.38226 -0.00290335 7.7492e-17)
(6.33104 -0.00210646 3.48017e-17)
(6.28381 -0.00140021 -2.37714e-18)
(6.2413 -0.000759085 2.23293e-17)
(6.20343 -0.00027286 2.08316e-17)
(6.16985 0.000119637 -1.28862e-18)
(6.13993 0.000391836 -2.69713e-19)
(6.11319 0.000654462 2.7281e-17)
(6.08919 0.000965987 2.35451e-17)
(6.06785 0.00162978 2.92623e-17)
(6.04928 0.00305896 2.95973e-17)
(6.03388 0.00689793 3.79245e-18)
(6.0188 0.0205131 2.56362e-18)
(6.22024 -0.0684176 -1.02355e-16)
(6.25333 -0.0777011 -1.4491e-16)
(6.26885 -0.060643 -1.62233e-16)
(6.25582 -0.0442939 -1.84756e-16)
(6.22914 -0.0298094 -6.29144e-17)
(6.19761 -0.0184779 -1.71317e-16)
(6.16164 -0.0111858 -1.68001e-16)
(6.11975 -0.00660431 -1.17983e-16)
(6.07106 -0.00373722 -8.60187e-17)
(6.01584 -0.00159465 -5.20044e-17)
(5.95567 -4.53564e-05 -1.07417e-16)
(5.89344 0.00126259 -7.94964e-17)
(5.83265 0.00233259 -5.51612e-17)
(5.77632 0.00322165 -4.7798e-17)
(5.72649 0.0039219 -1.7471e-17)
(5.68373 0.0043769 -5.70378e-17)
(5.64764 0.0046261 -6.94927e-17)
(5.61711 0.0046251 -5.05563e-17)
(5.59109 0.00447931 -4.53774e-17)
(5.56856 0.00418353 -4.55824e-17)
(5.54894 0.00386595 -4.04162e-17)
(5.53168 0.0035205 -3.37866e-17)
(5.51651 0.00324233 -2.9271e-17)
(5.50309 0.00301075 -2.42861e-17)
(5.49128 0.00290203 -8.5237e-18)
(5.48092 0.00292252 -1.03612e-17)
(5.47213 0.0033056 -2.57051e-18)
(5.4654 0.00429649 -1.72667e-18)
(5.46134 0.00740443 -3.52902e-18)
(5.46035 0.0226338 2.58531e-18)
(5.55819 -0.065939 7.20455e-18)
(5.48535 -0.0716596 3.75838e-18)
(5.41457 -0.051744 -3.70764e-17)
(5.32865 -0.0343023 -8.21919e-17)
(5.24227 -0.0199085 -1.08078e-16)
(5.16305 -0.00931851 -1.27599e-16)
(5.09038 -0.00267818 -1.35113e-16)
(5.02406 0.00153641 -1.32587e-16)
(4.96586 0.00440993 -1.22425e-16)
(4.91783 0.00652816 -1.0602e-16)
(4.88064 0.0079176 -9.35354e-17)
(4.8534 0.00867476 -8.26852e-17)
(4.83423 0.00885605 -7.56523e-17)
(4.82105 0.00859222 -7.25711e-17)
(4.81215 0.0080589 -6.56126e-17)
(4.80625 0.00738673 -6.76782e-17)
(4.80255 0.00671825 -6.89572e-17)
(4.80037 0.00608231 -6.41462e-17)
(4.79929 0.00553107 -6.76638e-17)
(4.79888 0.00502944 -6.64201e-17)
(4.79892 0.00460252 -5.98674e-17)
(4.7992 0.00421547 -4.83812e-17)
(4.79967 0.00389528 -3.67456e-17)
(4.80027 0.00362339 -2.81451e-17)
(4.80107 0.00344157 -2.13239e-17)
(4.80219 0.00335701 -1.59143e-17)
(4.80386 0.00354959 -1.29684e-17)
(4.80753 0.00422034 -1.07434e-17)
(4.81303 0.00615879 -9.99601e-18)
(4.82808 0.0235476 -9.22091e-18)
(3.98857 -0.0660862 -1.40141e-16)
(3.9584 -0.0756775 -2.83012e-17)
(3.84338 -0.0526356 -1.59766e-16)
(3.69916 -0.0312329 -2.28793e-16)
(3.58312 -0.0147896 -2.34869e-16)
(3.51193 -0.00375625 -2.23833e-16)
(3.47932 0.00264914 -7.88666e-17)
(3.47443 0.00601455 -1.60352e-16)
(3.48827 0.00771913 -1.37674e-16)
(3.51316 0.00833575 -1.23148e-16)
(3.54365 0.0083562 -1.09552e-16)
(3.57623 0.00796545 -9.69323e-17)
(3.60867 0.00742289 -8.47251e-17)
(3.63984 0.00679778 -8.30229e-17)
(3.66891 0.00618531 -7.91125e-17)
(3.6957 0.00560758 -7.08465e-17)
(3.72005 0.00508814 -1.14721e-16)
(3.7422 0.00462692 -2.35269e-17)
(3.7622 0.00421561 -1.67708e-17)
(3.78036 0.00384851 -3.65229e-17)
(3.79675 0.00351728 -3.20335e-17)
(3.81166 0.00322387 -2.01391e-17)
(3.82518 0.00296769 -1.16137e-17)
(3.83761 0.0027548 -7.5157e-18)
(3.8491 0.0025997 -2.20038e-17)
(3.86013 0.00252012 -1.76905e-17)
(3.87083 0.0026225 -1.47179e-17)
(3.88433 0.00326949 -1.52966e-17)
(3.89859 0.00364705 -1.47924e-17)
(3.93072 0.0191702 -1.6386e-17)
(2.53576 0.018036 3.54915e-17)
(1.99789 0.00188912 -1.89607e-16)
(1.63716 -0.00178545 -2.15838e-16)
(1.41517 0.000624083 -1.73938e-16)
(1.32241 0.00358068 -1.25172e-16)
(1.31357 0.00476686 -1.29977e-16)
(1.34293 0.00461946 9.21388e-17)
(1.38571 0.00398245 -5.62133e-17)
(1.43417 0.00353509 -7.77194e-17)
(1.48431 0.00312327 -1.89405e-16)
(1.53421 0.0028922 -1.40049e-16)
(1.58241 0.00264682 -9.08973e-17)
(1.62782 0.0024641 -5.27111e-17)
(1.67013 0.00226779 -1.50619e-16)
(1.70871 0.002083 -9.21166e-17)
(1.74395 0.00191044 -4.67012e-17)
(1.77568 0.0017453 -1.1983e-16)
(1.80461 0.00160639 -7.29619e-17)
(1.83068 0.00146996 -3.02501e-17)
(1.85458 0.00135723 3.67338e-17)
(1.87618 0.00124426 1.76101e-17)
(1.89608 0.00115355 6.05643e-17)
(1.91419 0.00106749 3.90674e-17)
(1.93108 0.00100324 6.39311e-17)
(1.94676 0.000954515 2.51003e-17)
(1.96192 0.000939519 1.1515e-17)
(1.97663 0.001032 -6.90587e-18)
(1.99295 0.00181345 -1.35408e-17)
(2.00825 0.00138047 -1.186e-17)
(1.99392 0.00946641 -1.07505e-17)
(7.45798 0.000347939 2.29802e-15)
(7.45645 0.000456302 2.27816e-15)
(7.45482 0.00046084 2.25909e-15)
(7.4534 0.000404008 2.24124e-15)
(7.4522 0.000336569 2.22505e-15)
(7.45119 0.000282027 2.2108e-15)
(7.45033 0.00023676 2.19842e-15)
(7.44959 0.000196724 2.18777e-15)
(7.44897 0.000165949 2.17857e-15)
(7.44842 0.000145898 2.17041e-15)
(7.44793 0.000132642 2.16298e-15)
(7.44746 0.000122226 2.1553e-15)
(7.44701 0.000112278 2.14913e-15)
(7.4466 0.000102072 2.13564e-15)
(7.44621 9.1748e-05 2.15208e-15)
(7.44585 8.41405e-05 2.08279e-15)
(7.44549 8.14916e-05 2.01566e-15)
(7.44512 8.47731e-05 2.09343e-15)
(7.44472 9.20908e-05 2.03103e-15)
(7.44428 0.000100014 2.0882e-15)
(7.4438 0.000104778 2.06603e-15)
(7.44331 0.000102882 2.04608e-15)
(7.44284 9.45812e-05 2.02056e-15)
(7.44242 8.17595e-05 2.01617e-15)
(7.44206 6.9725e-05 1.93976e-15)
(7.44176 5.88081e-05 2.03958e-15)
(7.44149 4.75233e-05 2.11229e-15)
(7.44126 3.60196e-05 2.13718e-15)
(7.44107 2.97808e-05 2.12968e-15)
(7.44088 2.83703e-05 2.11745e-15)
(7.44069 2.65633e-05 2.09522e-15)
(7.4405 2.43734e-05 2.06888e-15)
(7.44032 2.40669e-05 2.03953e-15)
(7.44011 2.17705e-05 2.00749e-15)
(7.43988 2.08196e-05 1.97428e-15)
(7.43965 3.25999e-05 1.94003e-15)
(7.43939 4.53003e-05 1.90569e-15)
(7.43909 3.68139e-05 1.87181e-15)
(7.43879 2.37003e-05 1.83894e-15)
(7.43845 3.9435e-05 1.80744e-15)
(7.43806 6.7928e-05 1.77693e-15)
(7.43764 5.86715e-05 1.74894e-15)
(7.43717 -1.988e-06 1.71712e-15)
(7.43659 -5.92991e-05 1.69939e-15)
(7.4353 -6.09623e-05 1.5524e-15)
(7.43146 8.56087e-05 1.69771e-15)
(7.41747 0.00111813 1.54655e-15)
(7.38004 0.00377375 1.34203e-15)
(7.30616 0.00762925 1.26053e-15)
(7.19016 0.0114583 1.22095e-15)
(7.03606 0.0143431 1.84144e-15)
(6.85319 0.0160918 1.44034e-15)
(6.65095 0.0169431 9.61867e-16)
(6.43668 0.0171985 1.299e-15)
(6.21561 0.0170753 1.34762e-15)
(5.99152 0.0167064 1.44028e-15)
(5.76722 0.0161754 1.44622e-15)
(5.5448 0.015538 1.23176e-15)
(5.32587 0.014834 1.16294e-15)
(5.1116 0.0140919 1.20806e-15)
(4.90289 0.0133332 1.25726e-15)
(4.70038 0.0125737 1.29803e-15)
(4.50451 0.0118256 1.24083e-15)
(4.31555 0.0110974 9.58196e-16)
(4.13364 0.010395 1.0426e-15)
(3.95884 0.00972186 1.07162e-15)
(3.79113 0.00908028 8.60972e-16)
(3.63042 0.00847152 1.02142e-15)
(3.47661 0.00789629 1.23954e-15)
(3.32951 0.00735467 8.26348e-16)
(3.18894 0.00684613 6.87116e-16)
(3.05468 0.00636966 7.87053e-16)
(2.92651 0.00592395 6.70078e-16)
(2.80422 0.0055076 7.25068e-16)
(2.68755 0.00511917 8.30841e-16)
(2.5763 0.00475722 7.13899e-16)
(2.47021 0.00442027 6.1387e-16)
(2.36907 0.00410685 5.83323e-16)
(2.27265 0.00381552 5.85539e-16)
(2.18074 0.00354485 6.00713e-16)
(2.09312 0.00329349 5.44239e-16)
(2.00959 0.00306014 5.67266e-16)
(1.92996 0.00284359 5.45642e-16)
(1.85403 0.00264266 4.53205e-16)
(1.78163 0.00245625 4.36464e-16)
(1.71258 0.00228334 4.10652e-16)
(1.64672 0.00212297 4.65533e-16)
(1.58388 0.00197421 4.70049e-16)
(1.52393 0.00183625 3.76685e-16)
(1.46671 0.00170827 3.86391e-16)
(1.41209 0.00158956 3.81559e-16)
(1.35994 0.00147943 3.49023e-16)
(1.31014 0.00137725 3.51553e-16)
(1.26256 0.00128243 3.6596e-16)
(1.21711 0.00119443 2.91987e-16)
(1.17367 0.00111275 3.05633e-16)
(1.13215 0.00103691 3.29357e-16)
(1.09245 0.000966486 2.69836e-16)
(1.05448 0.000901078 2.65508e-16)
(1.01816 0.000840313 2.93366e-16)
(0.983402 0.00078385 2.80048e-16)
(0.950136 0.000731372 2.64173e-16)
(0.918288 0.000682585 2.57803e-16)
(0.887789 0.000637219 2.30469e-16)
(0.858575 0.000595022 2.25382e-16)
(0.830585 0.000555764 2.31722e-16)
(0.80376 0.00051923 2.18637e-16)
(0.778046 0.000485221 2.13695e-16)
(0.753389 0.000453555 2.05034e-16)
(0.729741 0.000424062 1.96948e-16)
(0.707055 0.000396585 1.73143e-16)
(0.685286 0.000370979 1.88879e-16)
(0.664393 0.000347109 1.9097e-16)
(0.644334 0.00032485 1.65747e-16)
(0.625073 0.000304089 1.74514e-16)
(0.606574 0.000284718 1.65384e-16)
(0.588802 0.000266638 1.58373e-16)
(0.571725 0.000249759 1.62707e-16)
(0.555313 0.000233995 1.52374e-16)
(0.539537 0.000219267 1.37892e-16)
(0.524369 0.000205503 1.42346e-16)
(0.509784 0.000192634 1.34443e-16)
(0.495757 0.000180598 1.31062e-16)
(0.482264 0.000169336 1.30293e-16)
(0.469285 0.000158793 1.2455e-16)
(0.456797 0.000148914 1.259e-16)
(0.444783 0.000139658 1.22949e-16)
(0.433222 0.000130965 1.16856e-16)
(0.422103 0.000122816 1.12019e-16)
(0.411403 0.000115114 1.10749e-16)
(0.401122 0.000107919 1.13393e-16)
(0.391223 0.000100982 1.06086e-16)
(0.381751 9.46429e-05 1.02169e-16)
(0.372596 8.80936e-05 1.00182e-16)
(0.363967 8.27095e-05 9.80316e-17)
(0.355461 7.56463e-05 9.63179e-17)
(0.347902 7.2048e-05 9.3871e-17)
(0.33974 6.18832e-05 9.31048e-17)
(0.334094 6.28382e-05 9.06382e-17)
(0.325269 3.8005e-05 8.71245e-17)
(7.46241 0.000782542 -7.60254e-16)
(7.46076 0.00102375 -7.65573e-16)
(7.45903 0.00102007 -7.69311e-16)
(7.45756 0.000879334 -7.70666e-16)
(7.45636 0.000724195 -7.70303e-16)
(7.45536 0.000602967 -7.65118e-16)
(7.4545 0.000501463 -7.67818e-16)
(7.45376 0.000411518 -7.41253e-16)
(7.45314 0.000343811 -7.34163e-16)
(7.4526 0.000300325 -7.19797e-16)
(7.4521 0.00027107 -7.03576e-16)
(7.45163 0.00024721 -7.00349e-16)
(7.45117 0.000224452 -6.62205e-16)
(7.45075 0.00020121 -6.36169e-16)
(7.45035 0.000179055 -6.17512e-16)
(7.44998 0.000164046 -5.99205e-16)
(7.44962 0.000160456 -5.95684e-16)
(7.44925 0.000169565 -5.45445e-16)
(7.44884 0.000186173 -5.37001e-16)
(7.44838 0.000203143 -5.60557e-16)
(7.44789 0.000212649 -5.60124e-16)
(7.44739 0.000207868 -5.46729e-16)
(7.4469 0.000188909 -5.28872e-16)
(7.44647 0.00016158 -5.10184e-16)
(7.4461 0.000137388 -4.87681e-16)
(7.44578 0.000118645 -4.76952e-16)
(7.4455 9.99758e-05 -4.25483e-16)
(7.44526 8.02964e-05 -4.18386e-16)
(7.44506 6.73921e-05 -3.74339e-16)
(7.44485 5.86488e-05 -3.45661e-16)
(7.44464 4.90229e-05 -3.4734e-16)
(7.44444 5.0011e-05 -2.58544e-16)
(7.44424 6.59539e-05 -1.69941e-16)
(7.44402 6.69666e-05 -2.24582e-16)
(7.44378 4.45466e-05 -2.07916e-16)
(7.44353 4.53196e-05 -2.6375e-16)
(7.44325 8.53417e-05 -3.03019e-16)
(7.44293 0.000112286 -2.87194e-16)
(7.44261 8.59888e-05 -2.74456e-16)
(7.44225 2.07358e-05 -2.52686e-16)
(7.44178 -5.20978e-05 -2.36575e-16)
(7.44071 -0.00011165 -1.7826e-16)
(7.43758 -0.000105366 -2.05504e-16)
(7.42868 0.000251944 -1.09357e-16)
(7.40686 0.001589 6.90657e-17)
(7.36496 0.00453294 2.19537e-16)
(7.29943 0.00924781 4.46846e-16)
(7.21145 0.0153215 7.34334e-16)
(7.10401 0.022022 9.13261e-16)
(6.97845 0.0284853 9.99838e-16)
(6.83418 0.0338882 1.25018e-15)
(6.67117 0.0377596 1.36815e-15)
(6.49148 0.0400831 1.34707e-15)
(6.29874 0.0411215 1.48696e-15)
(6.09694 0.0412014 1.56177e-15)
(5.88967 0.040602 1.86696e-15)
(5.67989 0.0395332 1.773e-15)
(5.46995 0.0381463 1.35503e-15)
(5.2617 0.0365509 1.26589e-15)
(5.05657 0.0348271 1.4591e-15)
(4.85565 0.0330348 1.68333e-15)
(4.6598 0.0312192 1.8708e-15)
(4.46961 0.0294144 1.61757e-15)
(4.28549 0.0276454 1.05414e-15)
(4.10773 0.0259296 1.34981e-15)
(3.93648 0.0242782 1.4792e-15)
(3.77181 0.0226984 1.29866e-15)
(3.61371 0.021195 1.44724e-15)
(3.46212 0.0197708 1.44506e-15)
(3.31695 0.018427 1.0074e-15)
(3.17803 0.0171629 1.01737e-15)
(3.04519 0.0159767 1.04733e-15)
(2.91825 0.0148656 1.02925e-15)
(2.79702 0.0138265 9.93794e-16)
(2.68127 0.0128561 1.03304e-15)
(2.5708 0.0119511 1.02296e-15)
(2.46541 0.0111079 8.1804e-16)
(2.36486 0.010323 7.39962e-16)
(2.26896 0.009593 7.79713e-16)
(2.1775 0.0089144 8.41865e-16)
(2.09028 0.00828391 7.46029e-16)
(2.00709 0.00769835 8.29312e-16)
(1.92776 0.00715471 8.01697e-16)
(1.85209 0.00665011 5.5536e-16)
(1.77991 0.00618184 5.54112e-16)
(1.71106 0.00574736 5.13537e-16)
(1.64538 0.00534426 6.67401e-16)
(1.5827 0.0049703 7.02607e-16)
(1.52288 0.00462337 4.87631e-16)
(1.46577 0.00430151 5.26775e-16)
(1.41126 0.00400289 5.4131e-16)
(1.3592 0.00372582 5.16626e-16)
(1.30948 0.0034687 5.00275e-16)
(1.26198 0.00323009 4.92551e-16)
(1.21659 0.0030086 3.96888e-16)
(1.17321 0.00280299 4.10093e-16)
(1.13174 0.00261208 4.53899e-16)
(1.09208 0.00243478 3.81618e-16)
(1.05415 0.00227009 3.45511e-16)
(1.01786 0.00211708 4.0013e-16)
(0.983136 0.00197489 3.77009e-16)
(0.949897 0.00184273 3.75588e-16)
(0.918073 0.00171986 4.00358e-16)
(0.887596 0.00160559 3.06439e-16)
(0.858402 0.00149931 3.0727e-16)
(0.830429 0.00140042 3.33065e-16)
(0.803619 0.00130839 3.05762e-16)
(0.777919 0.00122272 3.04456e-16)
(0.753275 0.00114294 2.89818e-16)
(0.729638 0.00106864 2.72083e-16)
(0.706962 0.000999411 2.51216e-16)
(0.685202 0.000934895 2.51653e-16)
(0.664316 0.000874752 2.45792e-16)
(0.644265 0.000818669 2.39093e-16)
(0.62501 0.000766355 2.50463e-16)
(0.606516 0.000717545 2.32298e-16)
(0.58875 0.000671988 2.21273e-16)
(0.571678 0.000629454 2.23373e-16)
(0.55527 0.000589729 2.12918e-16)
(0.539498 0.000552616 1.95592e-16)
(0.524334 0.000517931 1.98471e-16)
(0.509752 0.000485502 1.83484e-16)
(0.495728 0.000455171 1.79813e-16)
(0.482238 0.000426787 1.82765e-16)
(0.46926 0.000400218 1.71131e-16)
(0.456775 0.000375322 1.78809e-16)
(0.444762 0.000351996 1.75121e-16)
(0.433204 0.000330086 1.63019e-16)
(0.422086 0.000309549 1.60479e-16)
(0.411387 0.000290139 1.54156e-16)
(0.401108 0.000272005 1.57709e-16)
(0.39121 0.000254522 1.48517e-16)
(0.381739 0.000238543 1.41216e-16)
(0.372585 0.00022204 1.39033e-16)
(0.363957 0.000208464 1.36516e-16)
(0.355451 0.000190673 1.34813e-16)
(0.347893 0.000181584 1.31319e-16)
(0.339732 0.000156 1.32039e-16)
(0.334087 0.000158345 1.26929e-16)
(0.325263 9.58497e-05 1.20712e-16)
(7.46693 0.00137058 7.04177e-16)
(7.46503 0.00173826 7.02459e-16)
(7.46311 0.00168759 7.07776e-16)
(7.46156 0.001424 7.05375e-16)
(7.46037 0.00116494 7.13507e-16)
(7.45939 0.000973321 7.19961e-16)
(7.45854 0.000811699 7.21995e-16)
(7.45781 0.000669667 7.22928e-16)
(7.45721 0.000566556 7.23674e-16)
(7.45668 0.000502047 7.244e-16)
(7.45618 0.000459002 7.25002e-16)
(7.4557 0.00042429 7.25127e-16)
(7.45524 0.000390464 7.25173e-16)
(7.45481 0.000353501 7.23101e-16)
(7.4544 0.000316931 7.27716e-16)
(7.45403 0.000290382 7.06606e-16)
(7.45367 0.000282331 6.96674e-16)
(7.45329 0.000294613 7.01318e-16)
(7.45287 0.000319255 6.80757e-16)
(7.45241 0.00034535 6.62346e-16)
(7.4519 0.000359834 6.63515e-16)
(7.45137 0.000352274 6.82972e-16)
(7.45087 0.000320843 6.71935e-16)
(7.45043 0.000275458 6.42977e-16)
(7.45005 0.000232016 6.26565e-16)
(7.44972 0.000196312 6.16114e-16)
(7.44943 0.000162518 6.06828e-16)
(7.44918 0.000137994 5.98064e-16)
(7.44896 0.000132468 5.89589e-16)
(7.44875 0.00012407 5.81462e-16)
(7.44853 8.95101e-05 5.73679e-16)
(7.44832 6.34006e-05 5.66621e-16)
(7.44811 9.17358e-05 5.59461e-16)
(7.44785 0.000138251 5.55734e-16)
(7.44759 0.000133756 5.38269e-16)
(7.44734 7.69648e-05 5.67651e-16)
(7.44702 5.23171e-06 5.77695e-16)
(7.44646 -5.83828e-05 5.57646e-16)
(7.44489 -9.66742e-05 5.7875e-16)
(7.44055 -3.41777e-05 5.97115e-16)
(7.42958 0.000402219 5.28737e-16)
(7.40581 0.00175284 5.44394e-16)
(7.3641 0.00445304 4.20624e-16)
(7.3024 0.0086706 4.60263e-16)
(7.22313 0.0141691 5.61388e-16)
(7.13032 0.0203773 5.09467e-16)
(7.02735 0.026705 6.64168e-16)
(6.91589 0.0328033 8.29288e-16)
(6.79654 0.0385795 6.62885e-16)
(6.66941 0.0440031 5.96733e-16)
(6.5339 0.0489039 8.04255e-16)
(6.38884 0.0529726 9.56161e-16)
(6.23331 0.0559321 1.08766e-15)
(6.06747 0.0576823 1.29822e-15)
(5.89263 0.0583071 1.40624e-15)
(5.7108 0.0579934 1.37819e-15)
(5.52418 0.0569507 1.48083e-15)
(5.3349 0.0553672 1.34828e-15)
(5.14482 0.0533979 9.37242e-16)
(4.95555 0.0511654 1.31515e-15)
(4.76841 0.0487668 1.72975e-15)
(4.58446 0.0462783 1.73104e-15)
(4.40453 0.0437594 1.49983e-15)
(4.22927 0.0412555 1.01646e-15)
(4.05912 0.0387992 1.37688e-15)
(3.89441 0.0364133 1.5598e-15)
(3.73538 0.0341137 1.32824e-15)
(3.58213 0.0319115 1.31205e-15)
(3.43472 0.0298142 1.35377e-15)
(3.29315 0.0278265 1.0955e-15)
(3.15733 0.0259496 1.05784e-15)
(3.02718 0.0241825 1.03242e-15)
(2.90256 0.0225226 1.08999e-15)
(2.78332 0.0209663 9.89446e-16)
(2.66931 0.0195099 1.04639e-15)
(2.56035 0.0181489 1.08073e-15)
(2.45626 0.0168788 8.01312e-16)