/*--------------------------------*- C++ -*----------------------------------*\
| =========                 |                                                 |
| \\      /  F ield         | OpenFOAM: The Open Source CFD Toolbox           |
|  \\    /   O peration     | Version:  4.x                                   |
|   \\  /    A nd           | Web:      www.OpenFOAM.org                      |
|    \\/     M anipulation  |                                                 |
\*---------------------------------------------------------------------------*/
FoamFile
{
    version     2.0;
    format      ascii;
    class       volScalarField;
    location    "1";
    object      nut;
}
// * * * * * * * * * * * * * * * * * * * * * * * * * * * * * * * * * * * * * //

dimensions      [0 2 -1 0 0 0 0];

internalField   nonuniform List<scalar> 
11990
(
1.33258e-08
1.33346e-08
1.33434e-08
1.33522e-08
1.33611e-08
1.337e-08
1.3379e-08
1.3388e-08
1.3397e-08
1.3406e-08
1.34151e-08
1.34242e-08
1.34333e-08
1.34425e-08
1.34517e-08
1.34609e-08
1.34701e-08
1.34793e-08
1.34885e-08
1.34978e-08
1.3507e-08
1.35163e-08
1.35255e-08
1.35348e-08
1.3544e-08
1.35533e-08
1.35625e-08
1.35717e-08
1.35809e-08
1.359e-08
1.33294e-08
1.3345e-08
1.33605e-08
1.33758e-08
1.33909e-08
1.34058e-08
1.34206e-08
1.34352e-08
1.34497e-08
1.3464e-08
1.34782e-08
1.34922e-08
1.35061e-08
1.35199e-08
1.35336e-08
1.35471e-08
1.35605e-08
1.35738e-08
1.35869e-08
1.35999e-08
1.36128e-08
1.36256e-08
1.36383e-08
1.36508e-08
1.36632e-08
1.36755e-08
1.36876e-08
1.36997e-08
1.37116e-08
1.37233e-08
1.33299e-08
1.33464e-08
1.33624e-08
1.3378e-08
1.33933e-08
1.34082e-08
1.34228e-08
1.34372e-08
1.34513e-08
1.34652e-08
1.34788e-08
1.34922e-08
1.35053e-08
1.35182e-08
1.3531e-08
1.35435e-08
1.35557e-08
1.35678e-08
1.35797e-08
1.35914e-08
1.36029e-08
1.36142e-08
1.36253e-08
1.36363e-08
1.36471e-08
1.36577e-08
1.36682e-08
1.36787e-08
1.36892e-08
1.36995e-08
1.33254e-08
1.33327e-08
1.33395e-08
1.33459e-08
1.33521e-08
1.33581e-08
1.3364e-08
1.33697e-08
1.33754e-08
1.33811e-08
1.33866e-08
1.33922e-08
1.33976e-08
1.34031e-08
1.34085e-08
1.34139e-08
1.34193e-08
1.34247e-08
1.343e-08
1.34354e-08
1.34407e-08
1.34461e-08
1.34514e-08
1.34568e-08
1.34622e-08
1.34677e-08
1.34732e-08
1.34788e-08
1.34848e-08
1.34907e-08
1.33193e-08
1.33164e-08
1.33152e-08
1.33154e-08
1.33167e-08
1.33189e-08
1.33219e-08
1.33256e-08
1.33299e-08
1.33348e-08
1.33403e-08
1.33464e-08
1.33529e-08
1.33599e-08
1.33675e-08
1.33754e-08
1.33839e-08
1.33928e-08
1.34021e-08
1.34118e-08
1.3422e-08
1.34326e-08
1.34435e-08
1.34549e-08
1.34666e-08
1.34786e-08
1.34908e-08
1.35032e-08
1.35156e-08
1.35283e-08
1.3332e-08
1.33535e-08
1.33755e-08
1.33979e-08
1.34207e-08
1.34437e-08
1.34671e-08
1.34908e-08
1.35148e-08
1.35391e-08
1.35638e-08
1.35889e-08
1.36144e-08
1.36403e-08
1.36667e-08
1.36935e-08
1.37208e-08
1.37486e-08
1.3777e-08
1.38058e-08
1.38353e-08
1.38652e-08
1.38958e-08
1.39269e-08
1.39587e-08
1.39913e-08
1.40251e-08
1.4061e-08
1.41011e-08
1.41444e-08
1.33428e-08
1.33865e-08
1.34316e-08
1.34777e-08
1.35248e-08
1.3573e-08
1.36221e-08
1.36722e-08
1.37233e-08
1.37755e-08
1.38289e-08
1.38834e-08
1.39391e-08
1.39961e-08
1.40545e-08
1.41143e-08
1.41758e-08
1.42392e-08
1.43047e-08
1.43729e-08
1.44445e-08
1.45206e-08
1.46029e-08
1.4694e-08
1.47977e-08
1.492e-08
1.50698e-08
1.52603e-08
1.55135e-08
1.5825e-08
1.33596e-08
1.34391e-08
1.35221e-08
1.36082e-08
1.36973e-08
1.37894e-08
1.38844e-08
1.39827e-08
1.40845e-08
1.41899e-08
1.42995e-08
1.44136e-08
1.45331e-08
1.46593e-08
1.4794e-08
1.49399e-08
1.51014e-08
1.52846e-08
1.54986e-08
1.57567e-08
1.60779e-08
1.64891e-08
1.70281e-08
1.77482e-08
1.87233e-08
2.00565e-08
2.18891e-08
2.44085e-08
2.78386e-08
3.24257e-08
1.33928e-08
1.3543e-08
1.37019e-08
1.38698e-08
1.40472e-08
1.42348e-08
1.44339e-08
1.46462e-08
1.48741e-08
1.51218e-08
1.53956e-08
1.57056e-08
1.60674e-08
1.65046e-08
1.70526e-08
1.77637e-08
1.87151e-08
2.00213e-08
2.18531e-08
2.44689e-08
2.82667e-08
3.387e-08
4.22695e-08
5.5054e-08
7.47688e-08
1.05439e-07
1.53229e-07
2.26932e-07
3.37782e-07
4.97816e-07
1.34577e-08
1.37555e-08
1.40861e-08
1.44532e-08
1.48619e-08
1.53203e-08
1.58421e-08
1.64512e-08
1.71872e-08
1.81148e-08
1.93374e-08
2.1018e-08
2.34142e-08
2.69384e-08
3.22637e-08
4.05124e-08
5.35887e-08
7.47524e-08
1.0957e-07
1.67404e-07
2.63538e-07
4.21865e-07
6.77605e-07
1.07907e-06
1.6868e-06
2.56868e-06
3.78989e-06
5.39373e-06
7.3939e-06
9.67384e-06
1.3614e-08
1.4306e-08
1.51407e-08
1.61475e-08
1.73859e-08
1.89673e-08
2.10938e-08
2.41251e-08
2.8692e-08
3.5905e-08
4.77515e-08
6.78447e-08
1.02768e-07
1.64334e-07
2.72995e-07
4.62231e-07
7.8282e-07
1.30484e-06
2.11453e-06
3.30464e-06
4.95926e-06
7.13807e-06
9.8643e-06
1.3121e-05
1.68541e-05
2.09808e-05
2.54001e-05
2.99833e-05
3.46253e-05
3.89579e-05
1.40433e-08
1.59125e-08
1.84405e-08
2.20326e-08
2.75322e-08
3.66038e-08
5.26025e-08
8.23436e-08
1.3937e-07
2.49349e-07
4.57262e-07
8.33775e-07
1.47565e-06
2.49549e-06
4.001e-06
6.0715e-06
8.7403e-06
1.19898e-05
1.5757e-05
1.9948e-05
2.44525e-05
2.9159e-05
3.39642e-05
3.87797e-05
4.35339e-05
4.81692e-05
5.26469e-05
5.69037e-05
6.09752e-05
6.44848e-05
1.5156e-08
2.04544e-08
2.98568e-08
4.86628e-08
8.9235e-08
1.79265e-07
3.75327e-07
7.752e-07
1.51349e-06
2.73098e-06
4.53175e-06
6.95575e-06
9.97737e-06
1.3521e-05
1.74793e-05
2.17313e-05
2.61546e-05
3.0638e-05
3.5089e-05
3.94372e-05
4.36339e-05
4.76493e-05
5.14684e-05
5.50869e-05
5.85081e-05
6.17359e-05
6.47895e-05
6.76294e-05
7.04327e-05
7.26013e-05
1.7072e-08
3.45317e-08
8.4819e-08
2.2875e-07
5.95131e-07
1.36946e-06
2.71358e-06
4.68199e-06
7.22043e-06
1.02207e-05
1.35628e-05
1.71301e-05
2.08121e-05
2.45113e-05
2.81498e-05
3.16702e-05
3.5036e-05
3.82274e-05
4.12361e-05
4.40623e-05
4.67114e-05
4.9192e-05
5.15143e-05
5.3689e-05
5.57282e-05
5.76393e-05
5.94507e-05
6.11041e-05
6.29081e-05
6.37453e-05
2.47511e-08
1.06144e-07
3.96574e-07
1.12715e-06
2.42134e-06
4.18062e-06
6.2329e-06
8.44657e-06
1.07376e-05
1.30478e-05
1.53331e-05
1.75601e-05
1.97064e-05
2.17561e-05
2.3698e-05
2.55254e-05
2.72362e-05
2.88319e-05
3.03167e-05
3.16967e-05
3.29793e-05
3.41726e-05
3.52846e-05
3.63227e-05
3.72952e-05
3.82054e-05
3.90789e-05
3.98561e-05
4.09018e-05
4.04929e-05
4.67492e-08
2.64605e-07
7.54875e-07
1.43966e-06
2.07355e-06
2.71446e-06
3.31989e-06
3.8859e-06
4.4165e-06
4.9172e-06
5.392e-06
5.84238e-06
6.26778e-06
6.66841e-06
7.0441e-06
7.39534e-06
7.72263e-06
8.02739e-06
8.31074e-06
8.57455e-06
8.82007e-06
9.04929e-06
9.26343e-06
9.46436e-06
9.65332e-06
9.83125e-06
1.00071e-05
1.02072e-05
1.12482e-05
1.08901e-05
3.18852e-08
5.46828e-08
6.67126e-08
6.58213e-08
2.84136e-08
3.0722e-08
3.50913e-08
3.88711e-08
4.22703e-08
4.54591e-08
4.87873e-08
5.22531e-08
5.55719e-08
5.87474e-08
6.17787e-08
6.46658e-08
6.74036e-08
6.99967e-08
7.24438e-08
7.47546e-08
7.69306e-08
7.89855e-08
8.0924e-08
8.27641e-08
8.45179e-08
8.62127e-08
8.79407e-08
8.87211e-08
2.81127e-07
2.57828e-07
1.3597e-08
1.36021e-08
1.36074e-08
1.36128e-08
1.36185e-08
1.36243e-08
1.36304e-08
1.36366e-08
1.3643e-08
1.36496e-08
1.36564e-08
1.36634e-08
1.36706e-08
1.36779e-08
1.36855e-08
1.36933e-08
1.37013e-08
1.37095e-08
1.37179e-08
1.37266e-08
1.37354e-08
1.37446e-08
1.37539e-08
1.37636e-08
1.37734e-08
1.37836e-08
1.3794e-08
1.38047e-08
1.38157e-08
1.38269e-08
1.38385e-08
1.38504e-08
1.38626e-08
1.38752e-08
1.38883e-08
1.39024e-08
1.39188e-08
1.39423e-08
1.39901e-08
1.4126e-08
1.4605e-08
1.65028e-08
2.56788e-08
9.89069e-08
1.39178e-06
2.67183e-05
0.000146327
0.000316557
0.000514486
0.000727211
0.000939919
0.00114562
0.00134319
0.00153343
0.00171713
0.00189479
0.00206669
0.00223303
0.002394
0.00254972
0.00270033
0.00284598
0.00298677
0.00312285
0.00325434
0.00338135
0.00350401
0.00362245
0.00373677
0.00384709
0.00395353
0.00405619
0.00415519
0.00425063
0.00434261
0.00443122
0.00451657
0.00459874
0.00467783
0.00475392
0.00482709
0.00489742
0.004965
0.00502988
0.00509215
0.00515186
0.0052091
0.00526391
0.00531636
0.00536651
0.00541442
0.00546013
0.00550371
0.0055452
0.00558466
0.00562212
0.00565765
0.00569128
0.00572306
0.00575303
0.00578123
0.0058077
0.0058325
0.00585564
0.00587718
0.00589714
0.00591557
0.00593251
0.00594798
0.00596202
0.00597467
0.00598596
0.00599591
0.00600456
0.00601192
0.00601802
0.00602289
0.00602656
0.00602907
0.00603045
0.00603071
0.00602989
0.006028
0.00602506
0.0060211
0.00601613
0.00601017
0.00600327
0.00599543
0.00598667
0.00597699
0.00596639
0.00595491
0.00594255
0.00592931
0.00591518
0.00590013
0.00588412
0.00586675
0.00584733
1.37323e-08
1.37388e-08
1.37455e-08
1.37523e-08
1.37594e-08
1.37667e-08
1.37741e-08
1.37818e-08
1.37896e-08
1.37976e-08
1.38058e-08
1.38142e-08
1.38228e-08
1.38316e-08
1.38406e-08
1.38498e-08
1.38592e-08
1.38688e-08
1.38786e-08
1.38886e-08
1.38989e-08
1.39094e-08
1.39201e-08
1.39311e-08
1.39423e-08
1.39537e-08
1.39655e-08
1.39775e-08
1.39898e-08
1.40024e-08
1.40154e-08
1.40292e-08
1.40443e-08
1.40631e-08
1.40925e-08
1.41549e-08
1.43284e-08
1.48896e-08
1.69214e-08
2.56996e-08
8.09428e-08
7.00584e-07
9.60535e-06
7.01808e-05
0.000188918
0.000324739
0.000468966
0.000616064
0.000766022
0.00092269
0.00108754
0.00125829
0.00143142
0.00160417
0.00177484
0.00194246
0.00210646
0.00226648
0.00242231
0.00257382
0.00272096
0.00286369
0.00300205
0.00313607
0.0032658
0.00339132
0.00351271
0.00363005
0.00374342
0.00385293
0.00395866
0.00406071
0.00415917
0.00425414
0.00434571
0.00443397
0.004519
0.0046009
0.00467974
0.00475562
0.0048286
0.00489877
0.00496619
0.00503094
0.00509309
0.00515271
0.00520985
0.00526458
0.00531696
0.00536704
0.00541489
0.00546056
0.00550409
0.00554554
0.00558496
0.00562239
0.00565789
0.00569149
0.00572325
0.00575319
0.00578138
0.00580784
0.00583261
0.00585574
0.00587727
0.00589722
0.00591564
0.00593257
0.00594803
0.00596207
0.00597471
0.00598599
0.00599594
0.00600459
0.00601195
0.00601805
0.00602291
0.00602659
0.0060291
0.00603047
0.00603074
0.00602991
0.00602802
0.00602508
0.00602111
0.00601614
0.00601019
0.00600328
0.00599545
0.00598668
0.005977
0.0059664
0.00595492
0.00594256
0.00592932
0.00591519
0.00590014
0.00588413
0.00586676
0.00584734
1.37075e-08
1.37133e-08
1.37193e-08
1.37255e-08
1.37319e-08
1.37385e-08
1.37452e-08
1.37521e-08
1.37592e-08
1.37665e-08
1.37739e-08
1.37814e-08
1.37892e-08
1.37971e-08
1.38052e-08
1.38135e-08
1.3822e-08
1.38307e-08
1.38397e-08
1.38488e-08
1.38582e-08
1.38678e-08
1.38777e-08
1.38879e-08
1.38984e-08
1.39094e-08
1.3921e-08
1.39335e-08
1.39479e-08
1.39665e-08
1.39956e-08
1.40533e-08
1.4194e-08
1.45873e-08
1.5801e-08
2.00222e-08
3.84207e-08
1.58318e-07
1.37824e-06
1.38835e-05
7.3449e-05
0.000175747
0.000288859
0.000405793
0.000522925
0.000639349
0.000757087
0.000878091
0.00100328
0.00113361
0.00127016
0.00141308
0.00156126
0.00171287
0.00186607
0.00201935
0.00217155
0.00232183
0.00246957
0.00261434
0.00275581
0.00289378
0.0030281
0.00315869
0.00328549
0.0034085
0.00352773
0.00364321
0.00375497
0.00386308
0.0039676
0.00406859
0.00416613
0.0042603
0.00435116
0.00443879
0.00452328
0.00460469
0.00468312
0.00475861
0.00483127
0.00490114
0.0049683
0.00503282
0.00509477
0.0051542
0.00521118
0.00526577
0.00531802
0.00536799
0.00541573
0.00546131
0.00550476
0.00554613
0.00558549
0.00562286
0.00565831
0.00569186
0.00572357
0.00575349
0.00578163
0.00580806
0.00583281
0.00585592
0.00587742
0.00589736
0.00591576
0.00593267
0.00594812
0.00596215
0.00597478
0.00598605
0.00599599
0.00600463
0.00601198
0.00601807
0.00602294
0.00602661
0.00602912
0.00603049
0.00603075
0.00602992
0.00602803
0.00602509
0.00602113
0.00601616
0.00601021
0.00600331
0.00599547
0.00598671
0.00597702
0.00596642
0.00595494
0.00594258
0.00592934
0.0059152
0.00590016
0.00588415
0.00586677
0.00584735
1.34954e-08
1.34992e-08
1.35034e-08
1.3508e-08
1.3513e-08
1.35183e-08
1.3524e-08
1.353e-08
1.35362e-08
1.35427e-08
1.35494e-08
1.35564e-08
1.35637e-08
1.35713e-08
1.35793e-08
1.35876e-08
1.35964e-08
1.36057e-08
1.36156e-08
1.36261e-08
1.36376e-08
1.36502e-08
1.36645e-08
1.36813e-08
1.37024e-08
1.37318e-08
1.37783e-08
1.3864e-08
1.40461e-08
1.44825e-08
1.56355e-08
1.9069e-08
3.13018e-08
9.02565e-08
5.11963e-07
4.23456e-06
2.85374e-05
9.7533e-05
0.000190319
0.000287483
0.000385086
0.000481431
0.000576963
0.000673603
0.000772728
0.000874601
0.000979245
0.00108696
0.00119817
0.00131341
0.00143338
0.00155862
0.00168906
0.00182393
0.00196203
0.00210205
0.0022428
0.00238327
0.00252263
0.00266024
0.00279561
0.00292836
0.00305821
0.00318496
0.00330846
0.00342862
0.00354538
0.00365872
0.00376863
0.00387512
0.00397823
0.00407798
0.00417444
0.00426765
0.00435768
0.00444458
0.00452842
0.00460926
0.00468718
0.00476223
0.00483449
0.00490401
0.00497086
0.0050351
0.0050968
0.00515601
0.0052128
0.00526721
0.0053193
0.00536913
0.00541676
0.00546222
0.00550557
0.00554686
0.00558613
0.00562343
0.00565881
0.00569231
0.00572397
0.00575384
0.00578194
0.00580834
0.00583305
0.00585613
0.00587761
0.00589752
0.0059159
0.00593279
0.00594822
0.00596223
0.00597485
0.00598611
0.00599604
0.00600467
0.00601201
0.0060181
0.00602296
0.00602663
0.00602913
0.0060305
0.00603076
0.00602993
0.00602804
0.0060251
0.00602113
0.00601617
0.00601022
0.00600332
0.00599548
0.00598672
0.00597704
0.00596645
0.00595497
0.00594261
0.00592936
0.00591523
0.00590018
0.00588417
0.00586679
0.00584737
1.35385e-08
1.35462e-08
1.35546e-08
1.35639e-08
1.35742e-08
1.35854e-08
1.35975e-08
1.36105e-08
1.36245e-08
1.36395e-08
1.36558e-08
1.36736e-08
1.3693e-08
1.37145e-08
1.37386e-08
1.37658e-08
1.37972e-08
1.38338e-08
1.38778e-08
1.39321e-08
1.4002e-08
1.40972e-08
1.42369e-08
1.44614e-08
1.48618e-08
1.5659e-08
1.74401e-08
2.19843e-08
3.58477e-08
9.07981e-08
3.91146e-07
2.42964e-06
1.48255e-05
5.82725e-05
0.000131967
0.000214186
0.000296834
0.000378256
0.000458379
0.000538482
0.000620059
0.000703758
0.000789539
0.000877411
0.000967637
0.00106047
0.00115604
0.00125452
0.00135614
0.00146124
0.00157029
0.00168377
0.00180194
0.00192456
0.00205095
0.00218017
0.00231118
0.00244302
0.00257481
0.00270582
0.00283545
0.00296321
0.00308875
0.00321174
0.00333199
0.00344932
0.00356361
0.0036748
0.00378283
0.00388768
0.00398934
0.00408783
0.00418318
0.00427541
0.00436457
0.00445071
0.00453387
0.00461412
0.0046915
0.00476608
0.00483792
0.00490707
0.00497359
0.00503754
0.00509898
0.00515796
0.00521453
0.00526875
0.00532068
0.00537036
0.00541785
0.00546319
0.00550644
0.00554763
0.00558682
0.00562404
0.00565935
0.00569279
0.0057244
0.00575421
0.00578227
0.00580863
0.00583331
0.00585635
0.0058778
0.00589768
0.00591604
0.00593291
0.00594833
0.00596232
0.00597492
0.00598617
0.00599609
0.00600471
0.00601204
0.00601812
0.00602298
0.00602664
0.00602914
0.00603051
0.00603076
0.00602993
0.00602803
0.00602509
0.00602113
0.00601616
0.00601022
0.00600332
0.00599548
0.00598672
0.00597704
0.00596646
0.00595498
0.00594263
0.00592938
0.00591525
0.00590021
0.0058842
0.00586682
0.00584739
1.41798e-08
1.4207e-08
1.42376e-08
1.42725e-08
1.43124e-08
1.4358e-08
1.44103e-08
1.44707e-08
1.45409e-08
1.4623e-08
1.472e-08
1.48354e-08
1.49742e-08
1.51431e-08
1.53516e-08
1.56137e-08
1.59509e-08
1.63987e-08
1.70192e-08
1.7929e-08
1.93651e-08
2.18525e-08
2.66852e-08
3.75181e-08
6.66578e-08
1.64989e-07
5.85222e-07
2.66954e-06
1.23526e-05
4.34623e-05
0.000100547
0.000169
0.000238837
0.000307664
0.000375312
0.000442636
0.000510854
0.00058072
0.000652336
0.00072562
0.000800694
0.000877791
0.000957042
0.00103851
0.0011223
0.00120857
0.00129748
0.00138915
0.00148378
0.00158159
0.00168293
0.00178818
0.00189764
0.00201132
0.00212888
0.00224966
0.00237283
0.00249751
0.00262288
0.00274817
0.00287275
0.00299608
0.00311771
0.00323729
0.00335454
0.00346924
0.00358124
0.0036904
0.00379665
0.00389994
0.00400023
0.0040975
0.00419178
0.00428306
0.00437138
0.00445678
0.00453928
0.00461894
0.00469581
0.00476993
0.00484135
0.00491014
0.00497633
0.00503999
0.00510116
0.00515991
0.00521627
0.00527031
0.00532207
0.0053716
0.00541895
0.00546418
0.00550731
0.00554841
0.00558751
0.00562466
0.0056599
0.00569327
0.00572482
0.00575458
0.0057826
0.00580891
0.00583356
0.00585657
0.00587799
0.00589785
0.00591618
0.00593303
0.00594843
0.0059624
0.00597499
0.00598623
0.00599613
0.00600474
0.00601207
0.00601814
0.00602299
0.00602665
0.00602914
0.0060305
0.00603076
0.00602992
0.00602802
0.00602508
0.00602112
0.00601615
0.00601021
0.00600331
0.00599548
0.00598672
0.00597704
0.00596646
0.00595499
0.00594263
0.0059294
0.00591527
0.00590023
0.00588422
0.00586684
0.00584742
1.60998e-08
1.63273e-08
1.65977e-08
1.69228e-08
1.73146e-08
1.7787e-08
1.836e-08
1.90596e-08
1.99201e-08
2.09882e-08
2.23299e-08
2.40401e-08
2.62618e-08
2.92208e-08
3.32939e-08
3.91534e-08
4.80907e-08
6.28075e-08
8.9528e-08
1.44249e-07
2.73247e-07
6.26503e-07
1.72917e-06
5.39216e-06
1.67113e-05
4.38968e-05
8.90736e-05
0.000144112
0.000201595
0.000258872
0.000315564
0.000372188
0.000429568
0.000488291
0.000548506
0.000610155
0.000673283
0.000738067
0.000804648
0.000873069
0.000943381
0.00101569
0.00109012
0.00116675
0.00124568
0.00132703
0.00141092
0.0014975
0.0015869
0.00167931
0.00177499
0.00187424
0.00197736
0.00208445
0.00219535
0.00230962
0.00242658
0.00254549
0.00266557
0.00278608
0.00290638
0.00302589
0.00314413
0.00326072
0.00337532
0.00348768
0.00359761
0.00370495
0.00380959
0.00391145
0.00401047
0.00410663
0.00419991
0.00429032
0.00437786
0.00446256
0.00454445
0.00462356
0.00469994
0.00477362
0.00484465
0.00491308
0.00497897
0.00504235
0.00510327
0.00516179
0.00521796
0.00527181
0.00532341
0.0053728
0.00542002
0.00546513
0.00550816
0.00554916
0.00558818
0.00562525
0.00566042
0.00569374
0.00572523
0.00575494
0.00578292
0.00580919
0.0058338
0.00585678
0.00587817
0.005898
0.00591632
0.00593314
0.00594852
0.00596248
0.00597505
0.00598627
0.00599617
0.00600477
0.00601209
0.00601815
0.006023
0.00602665
0.00602914
0.0060305
0.00603074
0.00602991
0.00602801
0.00602506
0.0060211
0.00601614
0.00601019
0.00600329
0.00599546
0.00598671
0.00597703
0.00596645
0.00595498
0.00594263
0.0059294
0.00591528
0.00590024
0.00588424
0.00586686
0.00584744
3.68394e-08
4.07513e-08
4.56883e-08
5.20089e-08
6.01444e-08
7.06907e-08
8.4521e-08
1.0289e-07
1.27637e-07
1.61551e-07
2.0903e-07
2.77308e-07
3.789e-07
5.36746e-07
7.95509e-07
1.2475e-06
2.09389e-06
3.78836e-06
7.34759e-06
1.48596e-05
2.97048e-05
5.50514e-05
9.07594e-05
0.00013318
0.000178567
0.000224953
0.000271753
0.000319082
0.000367314
0.000416747
0.000467474
0.000519476
0.000572785
0.000627525
0.000683806
0.00074167
0.000801143
0.000862299
0.000925234
0.000990021
0.00105672
0.00112542
0.0011962
0.00126917
0.00134441
0.00142203
0.00150213
0.00158485
0.0016703
0.00175864
0.00185008
0.00194487
0.00204326
0.00214541
0.00225126
0.00236049
0.00247258
0.00258687
0.00270266
0.00281924
0.00293597
0.00305227
0.00316764
0.00328166
0.00339398
0.00350431
0.00361243
0.00371817
0.00382138
0.00392197
0.00401987
0.00411503
0.00420742
0.00429703
0.00438386
0.00446793
0.00454926
0.00462786
0.00470379
0.00477707
0.00484774
0.00491585
0.00498144
0.00504456
0.00510525
0.00516356
0.00521954
0.00527323
0.00532468
0.00537393
0.00542103
0.00546603
0.00550896
0.00554987
0.00558881
0.00562581
0.00566092
0.00569417
0.00572561
0.00575528
0.00578321
0.00580945
0.00583402
0.00585697
0.00587833
0.00589814
0.00591644
0.00593324
0.0059486
0.00596255
0.00597511
0.00598631
0.0059962
0.00600479
0.0060121
0.00601816
0.00602299
0.00602664
0.00602913
0.00603048
0.00603073
0.00602989
0.00602798
0.00602504
0.00602108
0.00601611
0.00601017
0.00600327
0.00599544
0.00598669
0.00597702
0.00596644
0.00595497
0.00594263
0.0059294
0.00591528
0.00590025
0.00588425
0.00586688
0.00584746
6.629e-07
8.12435e-07
1.0038e-06
1.25081e-06
1.56821e-06
1.97508e-06
2.49776e-06
3.17227e-06
4.05028e-06
5.21053e-06
6.77796e-06
8.95621e-06
1.2081e-05
1.66989e-05
2.36575e-05
3.41365e-05
4.94618e-05
7.05764e-05
9.74315e-05
0.000128941
0.000163642
0.000200367
0.000238464
0.000277695
0.000318044
0.000359553
0.000402242
0.000446114
0.000491206
0.000537586
0.00058532
0.000634435
0.000684954
0.000736931
0.00079044
0.000845545
0.000902289
0.00096073
0.00102095
0.00108301
0.00114699
0.00121296
0.001281
0.0013512
0.00142365
0.00149843
0.00157566
0.00165544
0.00173789
0.00182313
0.00191135
0.00200276
0.00209758
0.00219597
0.00229794
0.00240327
0.00251152
0.00262214
0.00273447
0.00284784
0.00296164
0.00307527
0.00318823
0.00330008
0.00341045
0.00351905
0.00362562
0.00372997
0.00383194
0.00393143
0.00402834
0.00412262
0.00421422
0.00430313
0.00438933
0.00447283
0.00455365
0.0046318
0.00470732
0.00478024
0.00485058
0.0049184
0.00498373
0.00504661
0.00510709
0.00516521
0.00522101
0.00527455
0.00532585
0.00537498
0.00542197
0.00546686
0.0055097
0.00555053
0.00558939
0.00562633
0.00566138
0.00569458
0.00572597
0.00575559
0.00578349
0.00580969
0.00583423
0.00585715
0.00587848
0.00589827
0.00591654
0.00593333
0.00594868
0.00596261
0.00597515
0.00598635
0.00599622
0.0060048
0.00601211
0.00601816
0.00602299
0.00602663
0.00602911
0.00603046
0.00603071
0.00602986
0.00602796
0.00602502
0.00602105
0.00601609
0.00601015
0.00600325
0.00599542
0.00598667
0.005977
0.00596642
0.00595496
0.00594262
0.00592939
0.00591527
0.00590025
0.00588425
0.00586689
0.00584747
1.16239e-05
1.31477e-05
1.48986e-05
1.69212e-05
1.92332e-05
2.18826e-05
2.49644e-05
2.86291e-05
3.31089e-05
3.87445e-05
4.60016e-05
5.54655e-05
6.7779e-05
8.35012e-05
0.000102918
0.000125919
0.00015204
0.000180672
0.000211259
0.00024341
0.000276896
0.000311607
0.000347495
0.000384543
0.000422754
0.000462145
0.000502735
0.000544543
0.000587593
0.000631931
0.000677611
0.000724677
0.000773166
0.000823125
0.000874616
0.000927699
0.000982429
0.00103886
0.00109706
0.00115711
0.00121906
0.00128299
0.00134897
0.00141708
0.00148742
0.00156006
0.0016351
0.00171264
0.00179279
0.00187567
0.00196142
0.00205024
0.00214232
0.00223783
0.0023368
0.00243907
0.0025443
0.00265198
0.00276152
0.00287229
0.00298368
0.0030951
0.00320606
0.0033161
0.00342484
0.00353196
0.00363721
0.00374038
0.00384129
0.00393983
0.00403588
0.00412939
0.00422031
0.00430859
0.00439424
0.00447725
0.00455762
0.00463537
0.00471052
0.00478311
0.00485317
0.00492072
0.00498581
0.00504848
0.00510876
0.00516671
0.00522235
0.00527575
0.00532693
0.00537594
0.00542282
0.00546762
0.00551038
0.00555113
0.00558993
0.0056268
0.00566179
0.00569495
0.00572629
0.00575588
0.00578373
0.0058099
0.00583441
0.00585731
0.00587862
0.00589839
0.00591664
0.00593341
0.00594874
0.00596265
0.00597519
0.00598638
0.00599624
0.00600481
0.00601211
0.00601815
0.00602298
0.00602662
0.0060291
0.00603044
0.00603068
0.00602984
0.00602793
0.00602499
0.00602103
0.00601606
0.00601012
0.00600322
0.0059954
0.00598664
0.00597697
0.0059664
0.00595494
0.0059426
0.00592938
0.00591527
0.00590024
0.00588425
0.00586689
0.00584748
4.22354e-05
4.46801e-05
4.74523e-05
5.06241e-05
5.42863e-05
5.86498e-05
6.4031e-05
7.08225e-05
7.94683e-05
9.04123e-05
0.000104021
0.000120496
0.000139815
0.000161747
0.000185935
0.00021201
0.000239667
0.00026869
0.000298942
0.000330339
0.000362835
0.000396407
0.000431053
0.000466788
0.000503636
0.000541627
0.000580794
0.000621169
0.000662784
0.000705681
0.000749912
0.000795526
0.000842566
0.000891079
0.00094112
0.000992749
0.00104602
0.00110099
0.00115772
0.00121628
0.00127674
0.00133915
0.0014036
0.00147015
0.0015389
0.00160991
0.00168329
0.00175912
0.00183751
0.00191857
0.00200242
0.00208924
0.00217921
0.00227247
0.0023691
0.00246897
0.00257179
0.00267713
0.00278442
0.00289307
0.00300248
0.0031121
0.0032214
0.00332993
0.0034373
0.00354319
0.00364733
0.00374949
0.0038495
0.00394722
0.00404254
0.00413539
0.0042257
0.00431346
0.00439862
0.00448119
0.00456117
0.00463856
0.0047134
0.0047857
0.00485549
0.00492281
0.00498769
0.00505016
0.00511028
0.00516807
0.00522357
0.00527684
0.0053279
0.00537681
0.0054236
0.00546832
0.005511
0.00555168
0.00559041
0.00562723
0.00566217
0.00569528
0.00572659
0.00575613
0.00578396
0.00581009
0.00583458
0.00585745
0.00587874
0.00589849
0.00591672
0.00593348
0.00594879
0.0059627
0.00597522
0.0059864
0.00599625
0.00600482
0.0060121
0.00601814
0.00602297
0.0060266
0.00602908
0.00603042
0.00603066
0.00602981
0.00602791
0.00602496
0.006021
0.00601603
0.00601009
0.0060032
0.00599537
0.00598662
0.00597695
0.00596638
0.00595492
0.00594258
0.00592936
0.00591525
0.00590023
0.00588425
0.00586689
0.00584748
6.72733e-05
6.96795e-05
7.27457e-05
7.67032e-05
8.19175e-05
8.88554e-05
9.7942e-05
0.000109464
0.000123541
0.000140135
0.000159074
0.0001801
0.000202921
0.000227264
0.000252911
0.000279705
0.000307551
0.000336392
0.000366208
0.000396995
0.000428764
0.000461532
0.000495322
0.000530161
0.000566081
0.000603123
0.000641326
0.000680728
0.000721366
0.000763282
0.000806524
0.000851142
0.000897183
0.000944692
0.000993722
0.00104433
0.00109657
0.0011505
0.00120617
0.00126366
0.00132302
0.00138432
0.00144763
0.00151303
0.00158058
0.00165037
0.00172249
0.00179701
0.00187405
0.0019537
0.00203608
0.00212135
0.00220966
0.00230118
0.00239596
0.00249393
0.00259483
0.00269828
0.00280375
0.00291067
0.00301848
0.0031266
0.00323453
0.0033418
0.00344804
0.0035529
0.0036561
0.00375741
0.00385665
0.00395368
0.00404838
0.00414066
0.00423046
0.00431775
0.0044025
0.00448469
0.00456432
0.00464141
0.00471596
0.00478801
0.00485757
0.00492468
0.00498937
0.00505168
0.00511164
0.00516929
0.00522467
0.00527782
0.00532878
0.0053776
0.0054243
0.00546894
0.00551155
0.00555218
0.00559085
0.00562762
0.00566251
0.00569558
0.00572685
0.00575636
0.00578415
0.00581026
0.00583472
0.00585757
0.00587884
0.00589857
0.00591679
0.00593354
0.00594884
0.00596273
0.00597524
0.00598641
0.00599626
0.00600482
0.0060121
0.00601813
0.00602295
0.00602658
0.00602906
0.0060304
0.00603063
0.00602979
0.00602788
0.00602493
0.00602097
0.006016
0.00601006
0.00600317
0.00599534
0.00598659
0.00597693
0.00596636
0.0059549
0.00594257
0.00592935
0.00591524
0.00590022
0.00588424
0.00586688
0.00584748
7.51969e-05
7.8398e-05
8.32141e-05
9.0204e-05
9.98588e-05
0.000112309
0.000127306
0.00014446
0.00016344
0.000184006
0.000205968
0.000229149
0.000253396
0.000278589
0.000304658
0.000331569
0.000359315
0.000387907
0.000417365
0.000447718
0.000479
0.000511245
0.000544486
0.000578758
0.000614097
0.000650544
0.00068814
0.000726928
0.000766945
0.000808233
0.000850838
0.000894808
0.000940191
0.000987032
0.00103538
0.0010853
0.00113683
0.00119003
0.00124496
0.00130169
0.00136026
0.00142076
0.00148324
0.00154777
0.00161444
0.00168331
0.00175446
0.001828
0.00190399
0.00198255
0.00206379
0.00214784
0.00223486
0.002325
0.00241832
0.00251477
0.00261414
0.00271606
0.00282005
0.00292557
0.00303204
0.00313894
0.00324573
0.00335197
0.00345726
0.00356126
0.00366367
0.00376427
0.00386287
0.00395931
0.00405347
0.00414527
0.00423464
0.00432153
0.00440591
0.00448778
0.00456711
0.00464393
0.00471824
0.00479007
0.00485943
0.00492635
0.00499088
0.00505303
0.00511286
0.00517038
0.00522565
0.0052787
0.00532957
0.0053783
0.00542493
0.0054695
0.00551205
0.00555262
0.00559124
0.00562796
0.00566282
0.00569585
0.00572708
0.00575656
0.00578433
0.00581042
0.00583485
0.00585768
0.00587894
0.00589865
0.00591685
0.00593359
0.00594888
0.00596276
0.00597526
0.00598642
0.00599626
0.00600481
0.00601209
0.00601812
0.00602294
0.00602656
0.00602903
0.00603037
0.00603061
0.00602976
0.00602785
0.0060249
0.00602094
0.00601597
0.00601003
0.00600314
0.00599531
0.00598656
0.0059769
0.00596633
0.00595488
0.00594255
0.00592933
0.00591523
0.00590021
0.00588423
0.00586688
0.00584748
6.77093e-05
7.41102e-05
8.42653e-05
9.83444e-05
0.000115471
0.000134387
0.000154298
0.000175023
0.000196635
0.000219169
0.000242568
0.000266742
0.000291621
0.000317175
0.000343408
0.000370345
0.000398022
0.000426476
0.000455749
0.000485882
0.000516916
0.000548892
0.00058185
0.000615826
0.000650858
0.000686987
0.000724253
0.0007627
0.000802365
0.000843291
0.000885522
0.000929104
0.000974084
0.00102051
0.00106843
0.00111789
0.00116895
0.00122167
0.00127609
0.00133229
0.00139031
0.00145023
0.00151211
0.00157602
0.00164202
0.0017102
0.00178064
0.00185341
0.0019286
0.00200632
0.00208667
0.00216977
0.00225577
0.00234481
0.00243696
0.0025322
0.00263032
0.00273101
0.00283379
0.00293815
0.00304355
0.00314943
0.00325528
0.00336067
0.00346517
0.00356844
0.0036702
0.0037702
0.00386825
0.0039642
0.00405791
0.0041493
0.00423829
0.00432484
0.00440892
0.0044905
0.00456958
0.00464616
0.00472026
0.00479189
0.00486107
0.00492784
0.00499222
0.00505424
0.00511394
0.00517136
0.00522653
0.00527949
0.00533028
0.00537893
0.00542549
0.00547
0.0055125
0.00555301
0.00559159
0.00562827
0.00566309
0.00569608
0.00572729
0.00575675
0.00578449
0.00581055
0.00583497
0.00585778
0.00587902
0.00589872
0.00591691
0.00593363
0.00594891
0.00596278
0.00597528
0.00598643
0.00599626
0.00600481
0.00601208
0.00601811
0.00602292
0.00602654
0.00602901
0.00603035
0.00603058
0.00602973
0.00602782
0.00602487
0.00602091
0.00601594
0.00601
0.00600311
0.00599529
0.00598654
0.00597688
0.00596631
0.00595486
0.00594253
0.00592931
0.00591521
0.0059002
0.00588422
0.00586687
0.00584748
4.9099e-05
6.34209e-05
8.41476e-05
0.000107706
0.000130981
0.000153292
0.000175312
0.000197751
0.000220886
0.000244688
0.000269051
0.00029391
0.000319256
0.00034512
0.000371556
0.000398621
0.000426372
0.000454861
0.000484139
0.000514253
0.000545248
0.000577168
0.000610054
0.000643945
0.000678879
0.000714896
0.000752038
0.000790346
0.000829859
0.000870618
0.000912667
0.000956051
0.00100082
0.00104701
0.00109467
0.00114387
0.00119464
0.00124705
0.00130114
0.00135698
0.00141463
0.00147415
0.0015356
0.00159905
0.00166457
0.00173224
0.00180213
0.00187432
0.0019489
0.00202596
0.00210561
0.00218796
0.00227315
0.00236132
0.00245254
0.0025468
0.00264392
0.00274359
0.00284538
0.0029488
0.00305329
0.00315834
0.00326342
0.00336809
0.00347193
0.00357461
0.00367582
0.00377532
0.00387291
0.00396844
0.00406177
0.00415281
0.00424148
0.00432774
0.00441155
0.00449288
0.00457174
0.00464812
0.00472204
0.0047935
0.00486253
0.00492915
0.0049934
0.00505531
0.00511491
0.00517223
0.00522731
0.00528019
0.0053309
0.00537949
0.005426
0.00547045
0.00551289
0.00555337
0.00559191
0.00562855
0.00566333
0.0056963
0.00572748
0.00575691
0.00578463
0.00581067
0.00583507
0.00585786
0.00587909