/*--------------------------------*- C++ -*----------------------------------*\
| =========                 |                                                 |
| \\      /  F ield         | OpenFOAM: The Open Source CFD Toolbox           |
|  \\    /   O peration     | Version:  4.x                                   |
|   \\  /    A nd           | Web:      www.OpenFOAM.org                      |
|    \\/     M anipulation  |                                                 |
\*---------------------------------------------------------------------------*/
FoamFile
{
    version     2.0;
    format      ascii;
    class       volScalarField;
    location    "1";
    object      nuTilda;
}
// * * * * * * * * * * * * * * * * * * * * * * * * * * * * * * * * * * * * * //

dimensions      [0 2 -1 0 0 0 0];

internalField   nonuniform List<scalar> 
11990
(
1.13009e-05
1.13028e-05
1.13047e-05
1.13065e-05
1.13084e-05
1.13103e-05
1.13122e-05
1.13141e-05
1.1316e-05
1.13179e-05
1.13198e-05
1.13217e-05
1.13237e-05
1.13256e-05
1.13275e-05
1.13295e-05
1.13314e-05
1.13334e-05
1.13353e-05
1.13372e-05
1.13392e-05
1.13411e-05
1.13431e-05
1.1345e-05
1.1347e-05
1.13489e-05
1.13508e-05
1.13527e-05
1.13547e-05
1.13566e-05
1.13017e-05
1.1305e-05
1.13083e-05
1.13115e-05
1.13147e-05
1.13179e-05
1.1321e-05
1.13241e-05
1.13271e-05
1.13301e-05
1.13331e-05
1.13361e-05
1.1339e-05
1.13419e-05
1.13448e-05
1.13476e-05
1.13504e-05
1.13532e-05
1.13559e-05
1.13587e-05
1.13613e-05
1.1364e-05
1.13667e-05
1.13693e-05
1.13718e-05
1.13744e-05
1.13769e-05
1.13794e-05
1.13819e-05
1.13843e-05
1.13018e-05
1.13053e-05
1.13087e-05
1.1312e-05
1.13152e-05
1.13184e-05
1.13215e-05
1.13245e-05
1.13275e-05
1.13304e-05
1.13332e-05
1.13361e-05
1.13388e-05
1.13415e-05
1.13442e-05
1.13468e-05
1.13494e-05
1.13519e-05
1.13544e-05
1.13569e-05
1.13593e-05
1.13616e-05
1.1364e-05
1.13662e-05
1.13685e-05
1.13707e-05
1.13729e-05
1.13751e-05
1.13773e-05
1.13794e-05
1.13008e-05
1.13024e-05
1.13038e-05
1.13052e-05
1.13065e-05
1.13078e-05
1.1309e-05
1.13102e-05
1.13114e-05
1.13126e-05
1.13138e-05
1.1315e-05
1.13161e-05
1.13173e-05
1.13184e-05
1.13196e-05
1.13207e-05
1.13218e-05
1.1323e-05
1.13241e-05
1.13252e-05
1.13264e-05
1.13275e-05
1.13286e-05
1.13298e-05
1.13309e-05
1.13321e-05
1.13333e-05
1.13345e-05
1.13357e-05
1.12995e-05
1.12989e-05
1.12987e-05
1.12987e-05
1.1299e-05
1.12995e-05
1.13001e-05
1.13009e-05
1.13018e-05
1.13028e-05
1.1304e-05
1.13053e-05
1.13067e-05
1.13082e-05
1.13098e-05
1.13114e-05
1.13132e-05
1.13151e-05
1.13171e-05
1.13191e-05
1.13213e-05
1.13235e-05
1.13258e-05
1.13282e-05
1.13307e-05
1.13332e-05
1.13358e-05
1.13384e-05
1.1341e-05
1.13436e-05
1.13022e-05
1.13068e-05
1.13115e-05
1.13162e-05
1.1321e-05
1.13259e-05
1.13308e-05
1.13358e-05
1.13408e-05
1.13459e-05
1.13511e-05
1.13564e-05
1.13617e-05
1.13671e-05
1.13726e-05
1.13782e-05
1.13838e-05
1.13896e-05
1.13955e-05
1.14014e-05
1.14075e-05
1.14137e-05
1.142e-05
1.14264e-05
1.14329e-05
1.14396e-05
1.14465e-05
1.14538e-05
1.1462e-05
1.14708e-05
1.13045e-05
1.13138e-05
1.13233e-05
1.1333e-05
1.13429e-05
1.1353e-05
1.13633e-05
1.13737e-05
1.13844e-05
1.13952e-05
1.14062e-05
1.14174e-05
1.14289e-05
1.14406e-05
1.14525e-05
1.14647e-05
1.14771e-05
1.149e-05
1.15032e-05
1.15169e-05
1.15312e-05
1.15464e-05
1.15627e-05
1.15807e-05
1.16011e-05
1.1625e-05
1.16541e-05
1.16908e-05
1.17391e-05
1.17976e-05
1.13081e-05
1.13249e-05
1.13424e-05
1.13604e-05
1.13789e-05
1.1398e-05
1.14177e-05
1.14378e-05
1.14586e-05
1.148e-05
1.15021e-05
1.1525e-05
1.15489e-05
1.15739e-05
1.16004e-05
1.16289e-05
1.16602e-05
1.16955e-05
1.17362e-05
1.17849e-05
1.18445e-05
1.19196e-05
1.20159e-05
1.21411e-05
1.23048e-05
1.25184e-05
1.27954e-05
1.31492e-05
1.35893e-05
1.41184e-05
1.13151e-05
1.13467e-05
1.13799e-05
1.14146e-05
1.1451e-05
1.14891e-05
1.15291e-05
1.15713e-05
1.16161e-05
1.16642e-05
1.17167e-05
1.17753e-05
1.18426e-05
1.19224e-05
1.20203e-05
1.21438e-05
1.23034e-05
1.25129e-05
1.27902e-05
1.31573e-05
1.36413e-05
1.42733e-05
1.50877e-05
1.61206e-05
1.74064e-05
1.89744e-05
2.08425e-05
2.30071e-05
2.54346e-05
2.8056e-05
1.13288e-05
1.1391e-05
1.14589e-05
1.15329e-05
1.16137e-05
1.17023e-05
1.18008e-05
1.19128e-05
1.2044e-05
1.22035e-05
1.24046e-05
1.26661e-05
1.3013e-05
1.34779e-05
1.41007e-05
1.49281e-05
1.6012e-05
1.74055e-05
1.91584e-05
2.13113e-05
2.38906e-05
2.69042e-05
3.03395e-05
3.41632e-05
3.83236e-05
4.2753e-05
4.73722e-05
5.20781e-05
5.67781e-05
6.12193e-05
1.13616e-05
1.15034e-05
1.16678e-05
1.18573e-05
1.20786e-05
1.23447e-05
1.26774e-05
1.31107e-05
1.36923e-05
1.44832e-05
1.55555e-05
1.69869e-05
1.88521e-05
2.12117e-05
2.41033e-05
2.7533e-05
3.1474e-05
3.58685e-05
4.06358e-05
4.5681e-05
5.09081e-05
5.62263e-05
6.15579e-05
6.68381e-05
7.20161e-05
7.70501e-05
8.19071e-05
8.65388e-05
9.09285e-05
9.48212e-05
1.14502e-05
1.18139e-05
1.2258e-05
1.28164e-05
1.35516e-05
1.45534e-05
1.59374e-05
1.78327e-05
2.03515e-05
2.35595e-05
2.74586e-05
3.19849e-05
3.70238e-05
4.24316e-05
4.8062e-05
5.37839e-05
5.9492e-05
6.51066e-05
7.05713e-05
7.58461e-05
8.09057e-05
8.57334e-05
9.03215e-05
9.46667e-05
9.87714e-05
0.000102638
0.000106274
0.00010966
0.000112848
0.000115564
1.16708e-05
1.25802e-05
1.38297e-05
1.56305e-05
1.81998e-05
2.16892e-05
2.6133e-05
3.14123e-05
3.72842e-05
4.3465e-05
4.97096e-05
5.58473e-05
6.17782e-05
6.74498e-05
7.28366e-05
7.79257e-05
8.27105e-05
8.71894e-05
9.13674e-05
9.52544e-05
9.88654e-05
0.000102218
0.000105333
0.00010823
0.00011093
0.000113447
0.000115807
0.000117986
0.000120122
0.000121764
1.20237e-05
1.43425e-05
1.79651e-05
2.30489e-05
2.93382e-05
3.62865e-05
4.33265e-05
5.00683e-05
5.63385e-05
6.21096e-05
6.74135e-05
7.22912e-05
7.67726e-05
8.08819e-05
8.46431e-05
8.80806e-05
9.12214e-05
9.40932e-05
9.67224e-05
9.91341e-05
0.000101351
0.000103394
0.000105281
0.000107029
0.000108653
0.000110162
0.000111584
0.000112882
0.000114345
0.000115021
1.31952e-05
1.9006e-05
2.6484e-05
3.45122e-05
4.19418e-05
4.84049e-05
5.39334e-05
5.86995e-05
6.28692e-05
6.65593e-05
6.98512e-05
7.28026e-05
7.54603e-05
7.786e-05
8.00301e-05
8.19941e-05
8.37734e-05
8.53872e-05
8.68536e-05
8.81887e-05
8.94079e-05
9.05245e-05
9.15512e-05
9.24982e-05
9.3376e-05
9.41893e-05
9.49594e-05
9.5604e-05
9.6452e-05
9.61527e-05
1.54735e-05
2.3917e-05
3.12143e-05
3.71157e-05
4.19647e-05
4.53916e-05
4.80692e-05
5.02177e-05
5.20184e-05
5.3574e-05
5.49395e-05
5.61495e-05
5.7233e-05
5.8207e-05
5.90854e-05
5.98776e-05
6.05939e-05
6.12415e-05
6.18294e-05
6.2363e-05
6.28504e-05
6.32952e-05
6.37046e-05
6.40809e-05
6.44307e-05
6.47528e-05
6.50514e-05
6.50879e-05
6.21941e-05
6.10726e-05
1.40592e-05
1.60967e-05
1.69979e-05
1.83002e-05
2.12737e-05
2.25364e-05
2.35711e-05
2.43043e-05
2.49078e-05
2.54389e-05
2.59031e-05
2.63099e-05
2.66817e-05
2.7024e-05
2.73411e-05
2.76345e-05
2.79063e-05
2.81576e-05
2.83902e-05
2.86051e-05
2.88042e-05
2.89884e-05
2.91598e-05
2.93193e-05
2.94698e-05
2.96128e-05
2.97503e-05
2.94509e-05
1.56179e-05
1.48886e-05
1.1358e-05
1.13591e-05
1.13602e-05
1.13613e-05
1.13625e-05
1.13637e-05
1.1365e-05
1.13663e-05
1.13676e-05
1.1369e-05
1.13704e-05
1.13719e-05
1.13734e-05
1.13749e-05
1.13765e-05
1.13781e-05
1.13798e-05
1.13815e-05
1.13832e-05
1.1385e-05
1.13869e-05
1.13888e-05
1.13907e-05
1.13927e-05
1.13947e-05
1.13968e-05
1.1399e-05
1.14012e-05
1.14035e-05
1.14058e-05
1.14082e-05
1.14106e-05
1.14132e-05
1.14158e-05
1.14185e-05
1.14213e-05
1.14247e-05
1.14295e-05
1.14393e-05
1.1467e-05
1.15631e-05
1.19221e-05
1.33173e-05
1.86722e-05
3.64695e-05
8.32763e-05
0.000178029
0.000327567
0.000518986
0.000729501
0.000941297
0.00114655
0.00134387
0.00153395
0.00171755
0.00189513
0.00206697
0.00223328
0.00239421
0.00254991
0.0027005
0.00284613
0.00298691
0.00312298
0.00325445
0.00338146
0.00350411
0.00362254
0.00373685
0.00384717
0.00395361
0.00405627
0.00415526
0.0042507
0.00434267
0.00443128
0.00451663
0.0045988
0.00467789
0.00475397
0.00482714
0.00489747
0.00496504
0.00502993
0.00509219
0.00515191
0.00520914
0.00526395
0.0053164
0.00536655
0.00541446
0.00546017
0.00550375
0.00554524
0.0055847
0.00562216
0.00565769
0.00569132
0.00572309
0.00575306
0.00578126
0.00580774
0.00583253
0.00585568
0.00587721
0.00589718
0.00591561
0.00593254
0.00594801
0.00596206
0.0059747
0.00598599
0.00599595
0.0060046
0.00601196
0.00601806
0.00602292
0.00602659
0.00602911
0.00603048
0.00603075
0.00602992
0.00602803
0.0060251
0.00602113
0.00601616
0.00601021
0.0060033
0.00599547
0.00598671
0.00597702
0.00596643
0.00595494
0.00594259
0.00592934
0.00591521
0.00590017
0.00588416
0.00586678
0.00584736
1.13862e-05
1.13876e-05
1.13889e-05
1.13904e-05
1.13918e-05
1.13933e-05
1.13949e-05
1.13965e-05
1.13981e-05
1.13997e-05
1.14014e-05
1.14032e-05
1.14049e-05
1.14068e-05
1.14086e-05
1.14105e-05
1.14124e-05
1.14144e-05
1.14164e-05
1.14185e-05
1.14206e-05
1.14228e-05
1.1425e-05
1.14272e-05
1.14295e-05
1.14319e-05
1.14343e-05
1.14367e-05
1.14393e-05
1.14418e-05
1.14445e-05
1.14473e-05
1.14504e-05
1.14542e-05
1.14602e-05
1.14729e-05
1.15079e-05
1.16191e-05
1.19971e-05
1.332e-05
1.77563e-05
3.0598e-05
6.10959e-05
0.000119925
0.000212864
0.000335273
0.000474338
0.000619236
0.000768088
0.000924119
0.00108857
0.00125906
0.00143202
0.00160464
0.00177523
0.00194278
0.00210673
0.00226672
0.00242252
0.00257401
0.00272112
0.00286384
0.00300219
0.00313619
0.00326592
0.00339143
0.00351281
0.00363014
0.00374351
0.00385301
0.00395874
0.00406079
0.00415925
0.00425421
0.00434578
0.00443403
0.00451906
0.00460096
0.0046798
0.00475567
0.00482865
0.00489882
0.00496624
0.00503099
0.00509314
0.00515275
0.00520989
0.00526462
0.005317
0.00536709
0.00541493
0.0054606
0.00550413
0.00554558
0.005585
0.00562243
0.00565793
0.00569153
0.00572328
0.00575323
0.00578141
0.00580787
0.00583265
0.00585578
0.0058773
0.00589726
0.00591568
0.0059326
0.00594807
0.0059621
0.00597475
0.00598603
0.00599598
0.00600463
0.00601198
0.00601808
0.00602295
0.00602662
0.00602913
0.00603051
0.00603077
0.00602994
0.00602805
0.00602511
0.00602115
0.00601618
0.00601022
0.00600332
0.00599548
0.00598672
0.00597703
0.00596644
0.00595496
0.0059426
0.00592935
0.00591522
0.00590018
0.00588417
0.00586679
0.00584737
1.13811e-05
1.13823e-05
1.13835e-05
1.13848e-05
1.13861e-05
1.13875e-05
1.13889e-05
1.13903e-05
1.13918e-05
1.13933e-05
1.13948e-05
1.13964e-05
1.1398e-05
1.13996e-05
1.14013e-05
1.1403e-05
1.14048e-05
1.14066e-05
1.14084e-05
1.14103e-05
1.14122e-05
1.14142e-05
1.14163e-05
1.14184e-05
1.14205e-05
1.14228e-05
1.14252e-05
1.14277e-05
1.14307e-05
1.14345e-05
1.14405e-05
1.14522e-05
1.14808e-05
1.15596e-05
1.17931e-05
1.25131e-05
1.47312e-05
2.10144e-05
3.63778e-05
6.79592e-05
0.000122407
0.000201865
0.000301716
0.000412843
0.000527285
0.000642299
0.000759202
0.000879668
0.00100449
0.00113456
0.00127091
0.00141369
0.00156176
0.00171329
0.00186642
0.00201965
0.00217181
0.00232206
0.00246977
0.00261452
0.00275597
0.00289393
0.00302824
0.00315881
0.00328561
0.00340861
0.00352783
0.0036433
0.00375506
0.00386317
0.00396768
0.00406867
0.0041662
0.00426036
0.00435122
0.00443885
0.00452334
0.00460475
0.00468317
0.00475867
0.00483132
0.00490119
0.00496835
0.00503287
0.00509482
0.00515425
0.00521122
0.00526581
0.00531806
0.00536803
0.00541578
0.00546135
0.0055048
0.00554617
0.00558553
0.0056229
0.00565834
0.0056919
0.00572361
0.00575352
0.00578167
0.0058081
0.00583285
0.00585596
0.00587746
0.00589739
0.0059158
0.00593271
0.00594816
0.00596218
0.00597481
0.00598608
0.00599603
0.00600467
0.00601202
0.00601811
0.00602297
0.00602664
0.00602915
0.00603053
0.00603079
0.00602996
0.00602806
0.00602513
0.00602116
0.00601619
0.00601024
0.00600334
0.0059955
0.00598674
0.00597705
0.00596646
0.00595498
0.00594262
0.00592937
0.00591524
0.0059002
0.00588419
0.00586681
0.00584739
1.13367e-05
1.13375e-05
1.13384e-05
1.13394e-05
1.13404e-05
1.13416e-05
1.13428e-05
1.1344e-05
1.13453e-05
1.13467e-05
1.13481e-05
1.13495e-05
1.13511e-05
1.13527e-05
1.13543e-05
1.13561e-05
1.13579e-05
1.13599e-05
1.13619e-05
1.13641e-05
1.13665e-05
1.13691e-05
1.13721e-05
1.13756e-05
1.138e-05
1.13861e-05
1.13957e-05
1.14134e-05
1.14508e-05
1.15388e-05
1.17621e-05
1.23612e-05
1.39942e-05
1.82482e-05
2.82558e-05
4.87945e-05
8.5115e-05
0.000140512
0.000214045
0.000300442
0.00039285
0.000486541
0.000580567
0.000676265
0.00077476
0.00087619
0.000980515
0.00108799
0.00119902
0.00131412
0.00143397
0.00155912
0.00168949
0.0018243
0.00196235
0.00210233
0.00224305
0.00238348
0.00252282
0.00266041
0.00279577
0.0029285
0.00305834
0.00318508
0.00330857
0.00342872
0.00354548
0.00365881
0.00376871
0.0038752
0.0039783
0.00407806
0.00417451
0.00426772
0.00435774
0.00444464
0.00452848
0.00460932
0.00468724
0.00476229
0.00483454
0.00490406
0.00497091
0.00503515
0.00509685
0.00515606
0.00521284
0.00526725
0.00531935
0.00536918
0.0054168
0.00546226
0.00550561
0.00554689
0.00558617
0.00562347
0.00565885
0.00569235
0.00572401
0.00575387
0.00578198
0.00580837
0.00583309
0.00585617
0.00587764
0.00589755
0.00591594
0.00593283
0.00594826
0.00596227
0.00597488
0.00598614
0.00599608
0.00600471
0.00601205
0.00601814
0.006023
0.00602666
0.00602917
0.00603054
0.00603079
0.00602996
0.00602807
0.00602513
0.00602117
0.0060162
0.00601025
0.00600335
0.00599552
0.00598676
0.00597707
0.00596648
0.005955
0.00594264
0.0059294
0.00591526
0.00590022
0.00588421
0.00586683
0.00584741
1.13458e-05
1.13474e-05
1.13492e-05
1.13511e-05
1.13533e-05
1.13556e-05
1.13581e-05
1.13609e-05
1.13638e-05
1.13669e-05
1.13703e-05
1.1374e-05
1.1378e-05
1.13825e-05
1.13875e-05
1.13932e-05
1.13996e-05
1.14072e-05
1.14163e-05
1.14274e-05
1.14418e-05
1.14612e-05
1.14895e-05
1.15346e-05
1.16137e-05
1.17665e-05
1.20881e-05
1.28093e-05
1.44776e-05
1.82756e-05
2.63948e-05
4.21353e-05
6.9295e-05
0.000110735
0.000166757
0.000234493
0.000309119
0.000386279
0.000463989
0.000542602
0.000623191
0.000706201
0.000791486
0.00087899
0.000968938
0.00106155
0.00115695
0.00125529
0.0013568
0.00146181
0.00157078
0.0016842
0.00180232
0.00192489
0.00205124
0.00218043
0.00231141
0.00244322
0.00257499
0.00270598
0.0028356
0.00296335
0.00308887
0.00321186
0.0033321
0.00344942
0.00356371
0.00367489
0.00378291
0.00388776
0.00398942
0.0040879
0.00418325
0.00427547
0.00436463
0.00445077
0.00453393
0.00461417
0.00469156
0.00476614
0.00483797
0.00490712
0.00497364
0.00503759
0.00509902
0.005158
0.00521457
0.0052688
0.00532073
0.00537041
0.00541789
0.00546323
0.00550648
0.00554767
0.00558686
0.00562408
0.00565939
0.00569283
0.00572443
0.00575425
0.00578231
0.00580866
0.00583334
0.00585639
0.00587783
0.00589772
0.00591608
0.00593295
0.00594836
0.00596235
0.00597496
0.0059862
0.00599612
0.00600474
0.00601208
0.00601816
0.00602301
0.00602667
0.00602917
0.00603054
0.00603079
0.00602996
0.00602807
0.00602513
0.00602116
0.0060162
0.00601025
0.00600335
0.00599552
0.00598676
0.00597708
0.00596649
0.00595502
0.00594266
0.00592942
0.00591529
0.00590024
0.00588423
0.00586685
0.00584743
1.1478e-05
1.14835e-05
1.14896e-05
1.14967e-05
1.15047e-05
1.15139e-05
1.15243e-05
1.15364e-05
1.15504e-05
1.15667e-05
1.15858e-05
1.16085e-05
1.16356e-05
1.16683e-05
1.17083e-05
1.1758e-05
1.1821e-05
1.19032e-05
1.20144e-05
1.2172e-05
1.2409e-05
1.27901e-05
1.34461e-05
1.46437e-05
1.69123e-05
2.12336e-05
2.92306e-05
4.31866e-05
6.56713e-05
9.87083e-05
0.000142778
0.00019631
0.0002562
0.000319226
0.00038345
0.000448629
0.000515415
0.000584279
0.000655172
0.00072792
0.000802587
0.000879369
0.000958372
0.00103964
0.00112327
0.00120941
0.0012982
0.00138979
0.00148433
0.00158208
0.00168336
0.00178856
0.00189798
0.00201163
0.00212915
0.0022499
0.00237305
0.00249771
0.00262305
0.00274833
0.0028729
0.00299622
0.00311784
0.00323741
0.00335465
0.00346935
0.00358133
0.00369049
0.00379674
0.00390002
0.0040003
0.00409758
0.00419185
0.00428313
0.00437145
0.00445684
0.00453934
0.004619
0.00469586
0.00476998
0.00484141
0.00491019
0.00497638
0.00504004
0.00510121
0.00515995
0.00521632
0.00527035
0.00532211
0.00537164
0.005419
0.00546422
0.00550735
0.00554845
0.00558755
0.0056247
0.00565994
0.00569331
0.00572486
0.00575462
0.00578264
0.00580895
0.00583359
0.00585661
0.00587802
0.00589788
0.00591622
0.00593307
0.00594846
0.00596244
0.00597503
0.00598626
0.00599617
0.00600478
0.0060121
0.00601817
0.00602302
0.00602668
0.00602918
0.00603054
0.00603079
0.00602995
0.00602806
0.00602511
0.00602115
0.00601619
0.00601024
0.00600334
0.00599551
0.00598675
0.00597708
0.00596649
0.00595502
0.00594267
0.00592943
0.0059153
0.00590026
0.00588426
0.00586688
0.00584745
1.18486e-05
1.18902e-05
1.19392e-05
1.19973e-05
1.20662e-05
1.21478e-05
1.22446e-05
1.23597e-05
1.24971e-05
1.26616e-05
1.28595e-05
1.30992e-05
1.33924e-05
1.37552e-05
1.42121e-05
1.48011e-05
1.55835e-05
1.6662e-05
1.82112e-05
2.05285e-05
2.41096e-05
2.9741e-05
3.85702e-05
5.2074e-05
7.18316e-05
9.9076e-05
0.000134164
0.000176276
0.000223631
0.00027422
0.000326634
0.000380451
0.000435908
0.000493265
0.000552483
0.000613387
0.000675948
0.000740291
0.000806523
0.000874664
0.000944748
0.00101687
0.00109115
0.00116765
0.00124647
0.00132772
0.00141154
0.00149804
0.00158738
0.00167974
0.00177538
0.00187459
0.00197767
0.00208473
0.00219561
0.00230984
0.00242679
0.00254568
0.00266574
0.00278624
0.00290652
0.00302602
0.00314426
0.00326083
0.00337542
0.00348778
0.0035977
0.00370504
0.00380967
0.00391153
0.00401055
0.0041067
0.00419998
0.00429039
0.00437792
0.00446262
0.00454451
0.00462362
0.00469999
0.00477367
0.0048447
0.00491314
0.00497902
0.00504239
0.00510332
0.00516184
0.005218
0.00527186
0.00532346
0.00537284
0.00542007
0.00546517
0.0055082
0.0055492
0.00558822
0.00562529
0.00566046
0.00569377
0.00572527
0.00575498
0.00578296
0.00580923
0.00583383
0.00585681
0.0058782
0.00589804
0.00591635
0.00593318
0.00594856
0.00596251
0.00597509
0.00598631
0.0059962
0.0060048
0.00601212
0.00601819
0.00602303
0.00602668
0.00602917
0.00603053
0.00603078
0.00602994
0.00602804
0.0060251
0.00602113
0.00601617
0.00601023
0.00600333
0.0059955
0.00598674
0.00597707
0.00596649
0.00595502
0.00594267
0.00592943
0.00591531
0.00590028
0.00588427
0.0058669
0.00584748
1.45769e-05
1.49501e-05
1.53846e-05
1.58923e-05
1.6482e-05
1.71634e-05
1.79501e-05
1.88583e-05
1.9907e-05
2.11215e-05
2.2536e-05
2.41994e-05
2.61834e-05
2.85964e-05
3.1604e-05
3.54579e-05
4.05332e-05
4.73672e-05
5.66793e-05
6.93426e-05
8.62678e-05
0.000108192
0.000135429
0.000167701
0.000204203
0.000243906
0.00028596
0.000329942
0.000375776
0.000423457
0.000472879
0.000523892
0.000576441
0.000630584
0.000686391
0.000743873
0.000803034
0.000863934
0.000926655
0.000991264
0.00105781
0.00112638
0.00119706
0.00126993
0.00134509
0.00142263
0.00150268
0.00158533
0.00167074
0.00175904
0.00185044
0.00194519
0.00204355
0.00214568
0.0022515
0.00236071
0.00247278
0.00258705
0.00270283
0.0028194
0.00293612
0.00305241
0.00316777
0.00328177
0.00339408
0.00350441
0.00361252
0.00371825
0.00382146
0.00392205
0.00401995
0.0041151
0.00420749
0.0042971
0.00438393
0.00446799
0.00454931
0.00462792
0.00470384
0.00477712
0.00484779
0.0049159
0.00498149
0.00504461
0.0051053
0.00516361
0.00521959
0.00527328
0.00532472
0.00537397
0.00542107
0.00546607
0.005509
0.00554991
0.00558885
0.00562585
0.00566096
0.00569421
0.00572565
0.00575532
0.00578325
0.00580948
0.00583406
0.00585701
0.00587837
0.00589818
0.00591647
0.00593328
0.00594864
0.00596258
0.00597514
0.00598635
0.00599623
0.00600482
0.00601213
0.00601819
0.00602303
0.00602667
0.00602916
0.00603052
0.00603076
0.00602992
0.00602802
0.00602508
0.00602111
0.00601615
0.0060102
0.00600331
0.00599548
0.00598672
0.00597705
0.00596647
0.00595501
0.00594266
0.00592943
0.00591531
0.00590028
0.00588428
0.00586691
0.00584749
3.01708e-05
3.1774e-05
3.35369e-05
3.54819e-05
3.76088e-05
3.99227e-05
4.24412e-05
4.51917e-05
4.82182e-05
5.15933e-05
5.54305e-05
5.99001e-05
6.52483e-05
7.18154e-05
8.00464e-05
9.04788e-05
0.000103694
0.000120226
0.000140436
0.000164411
0.000191935
0.00022258
0.000255868
0.000291413
0.000328965
0.000368348
0.000409407
0.000452019
0.000496123
0.00054172
0.000588825
0.000637429
0.00068753
0.000739161
0.000792383
0.000847244
0.000903783
0.000962049
0.00102212
0.00108405
0.00114792
0.00121379
0.00128175
0.00135187
0.00142425
0.00149898
0.00157615
0.00165589
0.00173829
0.0018235
0.00191169
0.00200306
0.00209786
0.00219623
0.00229817
0.00240348
0.00251172
0.00262231
0.00273463
0.00284799
0.00296178
0.0030754
0.00318835
0.00330019
0.00341056
0.00351915
0.00362571
0.00373006
0.00383203
0.00393151
0.00402842
0.00412269
0.00421429
0.00430319
0.00438939
0.00447289
0.00455371
0.00463186
0.00470738
0.00478029
0.00485063
0.00491845
0.00498378
0.00504666
0.00510713
0.00516525
0.00522106
0.00527459
0.0053259
0.00537502
0.00542201
0.0054669
0.00550974
0.00555057
0.00558943
0.00562637
0.00566141
0.00569461
0.00572601
0.00575563
0.00578352
0.00580972
0.00583426
0.00585718
0.00587852
0.00589831
0.00591658
0.00593337
0.00594871
0.00596264
0.00597519
0.00598638
0.00599626
0.00600484
0.00601214
0.00601819
0.00602302
0.00602666
0.00602915
0.0060305
0.00603074
0.0060299
0.00602799
0.00602505
0.00602109
0.00601612
0.00601018
0.00600328
0.00599545
0.0059867
0.00597703
0.00596646
0.00595499
0.00594265
0.00592942
0.00591531
0.00590028
0.00588429
0.00586692
0.00584751
6.45235e-05
6.68791e-05
6.93966e-05
7.21039e-05
7.49899e-05
7.80809e-05
8.14485e-05
8.52064e-05
8.95232e-05
9.46335e-05
0.000100842
0.000108521
0.000118092
0.000129983
0.000144564
0.000162076
0.000182579
0.000205955
0.000231954
0.000260285
0.000290678
0.00032292
0.000356844
0.000392328
0.000429287
0.000467668
0.000507439
0.000548575
0.000591072
0.000634949
0.000680243
0.000726983
0.000775195
0.000824918
0.000876205
0.000929113
0.000983691
0.00103999
0.00109808
0.00115802
0.00121988
0.00128373
0.00134964
0.00141769
0.00148797
0.00156056
0.00163556
0.00171306
0.00179317
0.00187601
0.00196174
0.00205053
0.00214259
0.00223807
0.00233702
0.00243927
0.00254449
0.00265215
0.00276168
0.00287244
0.00298381
0.00309523
0.00320618
0.00331621
0.00342494
0.00353206
0.00363731
0.00374047
0.00384138
0.00393991
0.00403596
0.00412946
0.00422038
0.00430866
0.00439431
0.00447731
0.00455768
0.00463543
0.00471058
0.00478317
0.00485322
0.00492077
0.00498586
0.00504852
0.00510881
0.00516675
0.0052224
0.00527579
0.00532697
0.00537598
0.00542287
0.00546766
0.00551042
0.00555117
0.00558997
0.00562684
0.00566183
0.00569498
0.00572633
0.00575591
0.00578377
0.00580994
0.00583445
0.00585734
0.00587866
0.00589842
0.00591667
0.00593345
0.00594877
0.00596269
0.00597522
0.00598641
0.00599628
0.00600485
0.00601214
0.00601819
0.00602301
0.00602665
0.00602913
0.00603048
0.00603072
0.00602987
0.00602797
0.00602502
0.00602106
0.0060161
0.00601015
0.00600326
0.00599543
0.00598668
0.00597701
0.00596644
0.00595497
0.00594264
0.00592941
0.0059153
0.00590028
0.00588429
0.00586692
0.00584751
9.76633e-05
9.97361e-05
0.000102045
0.00010464
0.000107584
0.000111032
0.000115214
0.000120413
0.000126951
0.000135168
0.000145395
0.000157908
0.00017289
0.000190396
0.000210356
0.000232605
0.00025694
0.000283158
0.000311081
0.000340563
0.000371487
0.000403769
0.000437353
0.000472208
0.000508323
0.000545701
0.000584352
0.00062429
0.000665532
0.000708111
0.000752067
0.000797444
0.000844278
0.000892611
0.000942495
0.000993985
0.00104714
0.001102
0.00115863
0.00121711
0.00127748
0.00133983
0.00140421
0.00147072
0.00153941
0.00161039
0.00168372
0.00175952
0.00183787
0.0019189
0.00200273
0.00208952
0.00217946
0.00227271
0.00236932
0.00246917
0.00257198
0.0026773
0.00278457
0.00289321
0.00300262
0.00311222
0.00322151
0.00333004
0.0034374
0.00354329
0.00364742
0.00374957
0.00384958
0.00394729
0.00404261
0.00413546
0.00422577
0.00431352
0.00439868
0.00448125
0.00456122
0.00463862
0.00471345
0.00478575
0.00485554
0.00492286
0.00498774
0.00505021
0.00511032
0.00516811
0.00522362
0.00527688
0.00532795
0.00537685
0.00542364
0.00546836
0.00551104
0.00555172
0.00559045
0.00562727
0.00566221
0.00569532
0.00572662
0.00575617
0.00578399
0.00581013
0.00583461
0.00585748
0.00587877
0.00589852
0.00591676
0.00593351
0.00594883
0.00596273
0.00597525
0.00598643
0.00599629
0.00600485
0.00601214
0.00601818
0.006023
0.00602664
0.00602911
0.00603046
0.00603069
0.00602985
0.00602794
0.00602499
0.00602103
0.00601607
0.00601012
0.00600323
0.0059954
0.00598665
0.00597698
0.00596641
0.00595496
0.00594262
0.0059294
0.00591529
0.00590027
0.00588428
0.00586692
0.00584752
0.000117705
0.000119543
0.000121873
0.000124867
0.000128793
0.000134001
0.00014082
0.000149507
0.000160245
0.000173141
0.000188232
0.000205478
0.000224767
0.000245941
0.000268826
0.000293263
0.00031912
0.000346295
0.000374716
0.000404336
0.000435126
0.00046707
0.000500162
0.000534407
0.000569822
0.000606429
0.000644258
0.000683336
0.000723692
0.000765363
0.00080839
0.00085282
0.000898694
0.000946056
0.000994955
0.00104545
0.00109758
0.00115142
0.00120701
0.00126442
0.00132372
0.00138496
0.00144821
0.00151356
0.00158107
0.00165082
0.0017229
0.00179739
0.0018744
0.00195402
0.00203638
0.00212162
0.00220991
0.00230141
0.00239617
0.00249412
0.00259502
0.00269845
0.0028039
0.00291082
0.00301861
0.00312672
0.00323464
0.00334191
0.00344814
0.00355299
0.00365619
0.0037575
0.00385674
0.00395376
0.00404845
0.00414073
0.00423053
0.00431782
0.00440256
0.00448475
0.00456438
0.00464147
0.00471602
0.00478806
0.00485763
0.00492473
0.00498942
0.00505173
0.00511168
0.00516933
0.00522471
0.00527786
0.00532883
0.00537764
0.00542434
0.00546898
0.00551159
0.00555222
0.00559089
0.00562766
0.00566255
0.00569562
0.00572689
0.0057564
0.00578419
0.0058103
0.00583476
0.00585761
0.00587888
0.00589861
0.00591683
0.00593357
0.00594887
0.00596276
0.00597528
0.00598644
0.00599629
0.00600485
0.00601213
0.00601817
0.00602299
0.00602662
0.00602909
0.00603043
0.00603067
0.00602982
0.00602791
0.00602496
0.006021
0.00601604
0.0060101
0.0060032
0.00599538
0.00598662
0.00597696
0.00596639
0.00595493
0.0059426
0.00592938
0.00591528
0.00590026
0.00588427
0.00586692
0.00584752
0.000123728
0.000126143
0.000129766
0.000135011
0.00014226
0.000151665
0.000163146
0.000176551
0.000191771
0.000208739
0.000227385
0.000247603
0.000269263
0.000292236
0.000316415
0.000341727
0.000368121
0.000395568
0.000424056
0.000453583
0.00048416
0.000515799
0.000548519
0.00058234
0.000617289
0.000653395
0.000690693
0.00072922
0.000769007
0.000810091
0.000852517
0.000896327
0.000941568
0.000988282
0.00103652
0.00108633
0.00113777
0.00119089
0.00124575
0.00130241
0.00136092
0.00142136
0.00148379
0.00154828
0.0016149
0.00168374
0.00175486
0.00182836
0.00190433
0.00198286
0.00206408
0.00214811
0.00223511
0.00232522
0.00241853
0.00251496
0.00261432
0.00271622
0.0028202
0.00292571
0.00303218
0.00313906
0.00324585
0.00335208
0.00345736
0.00356135
0.00366376
0.00376436
0.00386295
0.00395939
0.00405355
0.00414534
0.00423471
0.00432159
0.00440598
0.00448784
0.00456717
0.00464399
0.0047183
0.00479012
0.00485948
0.0049264
0.00499093
0.00505308
0.0051129
0.00517043
0.0052257
0.00527874
0.00532961
0.00537834
0.00542497
0.00546954
0.00551209
0.00555266
0.00559128
0.005628
0.00566286
0.00569588
0.00572712
0.0057566
0.00578437
0.00581045
0.00583489
0.00585772
0.00587897
0.00589868
0.00591689
0.00593362
0.00594891
0.00596279
0.0059753
0.00598646
0.0059963
0.00600485
0.00601212
0.00601815
0.00602297
0.0060266
0.00602907
0.00603041
0.00603064
0.00602979
0.00602788
0.00602494
0.00602097
0.00601601
0.00601007
0.00600317
0.00599535
0.0059866
0.00597693
0.00596637
0.00595491
0.00594258
0.00592936
0.00591526
0.00590025
0.00588427
0.00586691
0.00584752
0.000118057
0.000122917
0.00013056
0.000141123
0.00015407
0.000168641
0.000184387
0.000201266
0.000219397
0.000238836
0.000259531
0.000281379
0.000304276
0.000328148
0.000352955
0.000378682
0.000405328
0.000432903
0.000461421
0.000490903
0.000521375
0.000552863
0.000585396
0.000619
0.000653707
0.000689548
0.000726562
0.000764784
0.000804251
0.000845
0.000887073
0.000930514
0.000975367
0.00102168
0.00106949
0.00111886
0.00116984
0.00122249
0.00127684
0.00133298
0.00139094
0.00145081
0.00151264
0.00157651
0.00164247
0.00171062
0.00178102
0.00185376
0.00192893
0.00200662
0.00208695
0.00217002
0.00225601
0.00234503
0.00243717
0.00253239
0.0026305
0.00273117
0.00283394
0.0029383
0.00304368
0.00314955
0.0032554
0.00336077
0.00346527
0.00356854
0.00367029
0.00377029
0.00386834
0.00396428
0.00405799
0.00414937
0.00423836
0.00432491
0.00440898
0.00449056
0.00456963
0.00464622
0.00472031
0.00479194
0.00486112
0.00492789
0.00499227
0.00505429
0.00511399
0.0051714
0.00522657
0.00527953
0.00533032
0.00537897
0.00542554
0.00547004
0.00551254
0.00555305
0.00559163
0.00562831
0.00566313
0.00569612
0.00572733
0.00575678
0.00578452
0.00581059
0.005835
0.00585782
0.00587905
0.00589875
0.00591694
0.00593366
0.00594894
0.00596281
0.00597531
0.00598646
0.0059963
0.00600484
0.00601211
0.00601814
0.00602295
0.00602658
0.00602904
0.00603038
0.00603061
0.00602976
0.00602785
0.00602491
0.00602094
0.00601598
0.00601004
0.00600315
0.00599532
0.00598657
0.00597691
0.00596634
0.00595489
0.00594256
0.00592935
0.00591525
0.00590023
0.00588426
0.00586691
0.00584751
0.000103447
0.000114779
0.000130485
0.000148183
0.000165994
0.000183582
0.000201506
0.000220347
0.000240338
0.000261429
0.000283488
0.0003064
0.000330106
0.000354584
0.000379844
0.000405907
0.000432801
0.000460553
0.000489195
0.000518757
0.000549271
0.00058077
0.000613287
0.000646853
0.000681501
0.000717265
0.000754181
0.000792288
0.000831623
0.000872222
0.000914128
0.000957383
0.00100203
0.00104812
0.00109569
0.0011448
0.0011955
0.00124783
0.00130186
0.00135764
0.00141524
0.00147471
0.00153611
0.00159952
0.00166501
0.00173264
0.0018025
0.00187467
0.00194922
0.00202626
0.00210588
0.00218821
0.00227339
0.00236154
0.00245275
0.00254699
0.00264409
0.00274375
0.00284553
0.00294894
0.00305343
0.00315846
0.00326354
0.00336819
0.00347203
0.0035747
0.00367591
0.00377541
0.00387299
0.00396852
0.00406184
0.00415288
0.00424155
0.00432781
0.00441161
0.00449295
0.0045718
0.00464818
0.00472209
0.00479355
0.00486258
0.00492921
0.00499345
0.00505536
0.00511495
0.00517227
0.00522735
0.00528023
0.00533095
0.00537954
0.00542604
0.00547049
0.00551294
0.00555341
0.00559195
0.00562859
0.00566337
0.00569633
0.00572751
0.00575694
0.00578466