/*--------------------------------*- C++ -*----------------------------------*\
| =========                 |                                                 |
| \\      /  F ield         | OpenFOAM: The Open Source CFD Toolbox           |
|  \\    /   O peration     | Version:  4.x                                   |
|   \\  /    A nd           | Web:      www.OpenFOAM.org                      |
|    \\/     M anipulation  |                                                 |
\*---------------------------------------------------------------------------*/
FoamFile
{
    version     2.0;
    format      ascii;
    class       volScalarField;
    location    "1";
    object      p;
}
// * * * * * * * * * * * * * * * * * * * * * * * * * * * * * * * * * * * * * //

dimensions      [0 2 -2 0 0 0 0];

internalField   nonuniform List<scalar> 
11990
(
1.15797
1.0111
0.848712
0.729843
0.649876
0.588075
0.533081
0.484451
0.44295
0.406547
0.373044
0.341676
0.312217
0.28424
0.257244
0.230863
0.204837
0.178955
0.153043
0.126991
0.100749
0.0743442
0.0479038
0.0217247
-0.00361524
-0.027078
-0.0468926
-0.0604142
-0.0640267
-0.0548218
1.15879
1.01167
0.847211
0.727336
0.648082
0.586996
0.532239
0.483801
0.442518
0.406241
0.372801
0.341491
0.312086
0.284153
0.257191
0.230839
0.204837
0.178972
0.153073
0.127026
0.100781
0.0743602
0.0478832
0.0216327
-0.00383719
-0.0275183
-0.0476623
-0.0615992
-0.0655421
-0.0562786
1.16079
1.01271
0.844006
0.722393
0.644634
0.584873
0.530556
0.482518
0.441655
0.405612
0.372295
0.3411
0.311803
0.283952
0.257058
0.230764
0.20481
0.17898
0.153104
0.127069
0.100819
0.0743695
0.0478257
0.021442
-0.00427115
-0.0283681
-0.0491494
-0.0639122
-0.0685383
-0.059195
1.16437
1.01417
0.839274
0.715734
0.640206
0.582109
0.528363
0.4809
0.440581
0.404821
0.371661
0.340616
0.311456
0.283713
0.256906
0.230686
0.204792
0.179008
0.153163
0.127141
0.100886
0.0744014
0.047774
0.021224
-0.00479815
-0.0294327
-0.0510648
-0.0669783
-0.0726352
-0.0633146
1.17018
1.01596
0.832945
0.707768
0.635163
0.57887
0.525796
0.479064
0.439357
0.403897
0.370916
0.340049
0.311046
0.283425
0.25672
0.230587
0.204765
0.179035
0.153226
0.127223
0.100964
0.0744427
0.0477266
0.0209958
-0.00536639
-0.0306086
-0.0532377
-0.070574
-0.0776287
-0.0685497
1.17867
1.01793
0.825031
0.698957
0.629855
0.575344
0.523041
0.477169
0.438089
0.40292
0.370131
0.339454
0.310615
0.283123
0.256527
0.230488
0.204742
0.179068
0.153299
0.127316
0.101055
0.0744989
0.0476952
0.0207839
-0.00592493
-0.0318018
-0.0555182
-0.0744986
-0.0833442
-0.0748531
1.18983
1.01964
0.815488
0.689648
0.624454
0.571612
0.520197
0.475282
0.436809
0.401912
0.369324
0.338845
0.310173
0.282815
0.256334
0.230392
0.204725
0.179111
0.153383
0.127421
0.10116
0.0745708
0.0476851
0.0206013
-0.00644184
-0.0329484
-0.0577913
-0.078584
-0.089636
-0.0822118
1.20383
1.02078
0.804464
0.68021
0.619096
0.567781
0.517386
0.473476
0.435553
0.400902
0.368516
0.338232
0.309724
0.282498
0.256132
0.230288
0.204702
0.179148
0.153464
0.127526
0.101268
0.0746513
0.0476919
0.0204503
-0.00690392
-0.0340099
-0.0599766
-0.0826906
-0.0963771
-0.0906309
1.22091
1.0209
0.792179
0.670939
0.613825
0.56392
0.514695
0.471797
0.434359
0.399932
0.367748
0.337655
0.309305
0.282207
0.255954
0.230204
0.204694
0.179196
0.153553
0.127638
0.101385
0.0747445
0.0477223
0.0203407
-0.00729195
-0.0349501
-0.0619999
-0.0866837
-0.10343
-0.100086
1.24137
1.01939
0.778936
0.662082
0.608662
0.560082
0.512151
0.470226
0.4332
0.398973
0.366984
0.337072
0.308874
0.281905
0.255767
0.230113
0.204683
0.179243
0.153642
0.127747
0.101498
0.0748358
0.0477577
0.0202533
-0.00762326
-0.035773
-0.0638304
-0.0904595
-0.110655
-0.110507
1.26585
1.01572
0.76509
0.653837
0.603706
0.556436
0.50988
0.46885
0.432169
0.398119
0.366311
0.336559
0.308496
0.281638
0.255601
0.23003
0.204675
0.179292
0.15374
0.127877
0.10165
0.0749834
0.0478737
0.0202751
-0.00780219
-0.0363782
-0.0653428
-0.0937989
-0.117726
-0.121618
1.29506
1.00954
0.750938
0.646064
0.598818
0.552935
0.507781
0.467544
0.43115
0.397274
0.365651
0.336068
0.308152
0.281416
0.255489
0.230001
0.204708
0.179356
0.153809
0.127914
0.101623
0.0748473
0.0475906
0.0197873
-0.00856645
-0.0375705
-0.0673134
-0.0973116
-0.124854
-0.133355
1.32927
1.00159
0.737727
0.639228
0.594361
0.549948
0.506149
0.466555
0.430352
0.396585
0.365073
0.335569
0.307697
0.280967
0.255015
0.229465
0.204087
0.17863
0.152985
0.127002
0.100657
0.0738513
0.0465942
0.0187878
-0.00959614
-0.0387383
-0.0688992
-0.099961
-0.130776
-0.144351
1.3659
0.991427
0.725938
0.633347
0.590262
0.547258
0.504653
0.465509
0.429347
0.395534
0.363968
0.334388
0.306445
0.279658
0.253691
0.228164
0.202857
0.177498
0.151974
0.12611
0.0998798
0.0731634
0.0459755
0.018196
-0.0102035
-0.0394552
-0.0699259
-0.101799
-0.135635
-0.154753
1.40518
0.981684
0.717186
0.629504
0.587345
0.545081
0.503045
0.463993
0.427755
0.393912
0.362391
0.332906
0.305097
0.278466
0.252663
0.227288
0.202115
0.176864
0.15143
0.125632
0.0994557
0.0727771
0.0456184
0.0178498
-0.0105583
-0.0398696
-0.0705184
-0.1029
-0.139284
-0.164854
1.43982
0.971121
0.708781
0.625708
0.584928
0.543502
0.501941
0.463033
0.42686
0.393114
0.361708
0.332331
0.304614
0.278061
0.252324
0.227005
0.201881
0.176671
0.151272
0.125503
0.0993514
0.0726913
0.0455458
0.0177821
-0.0106315
-0.0399709
-0.0707028
-0.103292
-0.141251
-0.175269
1.48113
0.975054
0.707493
0.624589
0.584086
0.543058
0.501768
0.462969
0.426838
0.393121
0.361737
0.332376
0.304671
0.27813
0.252403
0.227093
0.201974
0.176768
0.15137
0.125603
0.0994487
0.0727868
0.0456361
0.017868
-0.0105544
-0.0399054
-0.0706607
-0.103287
-0.141582
-0.181611
-0.0364554
-0.019478
-0.00382836
0.00906427
0.0193004
0.0272165
0.0333407
0.0381371
0.0418327
0.0446354
0.046847
0.0487091
0.0503276
0.0517584
0.0530634
0.0542918
0.0554669
0.0566
0.0577014
0.0587823
0.0598532
0.0609154
0.0619544
0.0629579
0.0639465
0.0649558
0.0659701
0.0669324
0.0678611
0.0688509
0.069886
0.0708473
0.0717808
0.0728444
0.0739549
0.0749656
0.0760605
0.0773298
0.078525
0.0797472
0.0812858
0.0828402
0.0843838
0.0864561
0.0888106
0.0915263
0.0949845
0.0990664
0.10353
0.107783
0.110989
0.112795
0.113319
0.112808
0.111467
0.10945
0.106878
0.103859
0.100489
0.0968532
0.0930256
0.0890713
0.085046
0.0809969
0.0769637
0.0729793
0.0690706
0.065259
0.0615615
0.057991
0.054557
0.0512658
0.0481216
0.0451261
0.0422795
0.0395805
0.0370266
0.0346144
0.0323396
0.0301977
0.0281836
0.0262918
0.0245169
0.0228532
0.0212952
0.0198372
0.0184739
0.0171998
0.0160099
0.0148991
0.0138626
0.012896
0.0119947
0.0111548
0.0103721
0.00964318
0.00896434
0.00833233
0.00774405
0.00719658
0.00668718
0.0062133
0.00577252
0.00536261
0.00498147
0.00462713
0.00429777
0.00399167
0.00370725
0.00344301
0.00319757
0.00296965
0.00275803
0.00256159
0.00237929
0.00221015
0.00205327
0.00190779
0.0017729
0.00164787
0.00153197
0.00142451
0.00132491
0.00123244
0.00114671
0.00106672
0.000992692
0.000922409
0.0008583
0.000793654
0.000739195
0.000671467
0.000632698
0.000536752
0.000545383
0.000336952
0.000525473
-9.36199e-05
0.00078607
-0.00129371
-0.0371812
-0.0194033
-0.00313804
0.0099773
0.0201085
0.0278152
0.0337901
0.0384897
0.0420859
0.044797
0.0469511
0.0487809
0.0503758
0.0517894
0.0530847
0.0543081
0.0554804
0.0566117
0.0577115
0.0587911
0.0598619
0.0609247
0.0619624
0.0629613
0.0639472
0.064961
0.0659796
0.0669352
0.0678538
0.0688461
0.06989
0.0708524
0.0717876
0.0728533
0.0739437
0.0749351
0.0760661
0.0773783
0.0785298
0.0796781
0.0812491
0.0829323
0.0845481
0.0866825
0.0894262
0.0921409
0.0944507
0.0963306
0.097996
0.0996566
0.10125
0.102488
0.103086
0.102913
0.10198
0.100374
0.0982043
0.0955746
0.0925814
0.0893105
0.0858369
0.0822258
0.0785332
0.0748062
0.0710846
0.0674012
0.0637827
0.0602507
0.056822
0.0535094
0.0503225
0.0472678
0.0443494
0.0415693
0.0389278
0.0364238
0.0340552
0.0318187
0.0297105
0.0277263
0.0258612
0.0241103
0.0224683
0.0209301
0.0194903
0.0181437
0.0168852
0.0157098
0.0146126
0.013589
0.0126345
0.0117448
0.0109158
0.0101436
0.00942463
0.00875533
0.00813245
0.00755291
0.00701382
0.00651245
0.00604625
0.00561284
0.00520998
0.00483559
0.00448772
0.00416454
0.00386436
0.0035856
0.00332677
0.0030865
0.00286351
0.00265659
0.00246465
0.00228664
0.0021216
0.00196863
0.00182688
0.00169557
0.00157397
0.00146136
0.00135711
0.00126057
0.00117119
0.00108831
0.00101156
0.000939998
0.000873865
0.000811003
0.000753848
0.000695774
0.00064744
0.000585622
0.000552208
0.000461834
0.000474901
0.000272526
0.000463651
-0.000146433
0.000730816
-0.00132619
-0.0385773
-0.0191527
-0.00165352
0.0118462
0.0216925
0.0289575
0.0346525
0.03917
0.0425681
0.0451033
0.0471516
0.0489204
0.050469
0.0518493
0.0531255
0.0543381
0.0555036
0.0566298
0.057725
0.058801
0.0598721
0.0609389
0.0619762
0.0629655
0.063943
0.0649628
0.0659922
0.0669462
0.0678607
0.0688583
0.0698887
0.0708167
0.0717677
0.072909
0.0740065
0.0748903
0.0759612
0.0773774
0.0787006
0.0799501
0.081655
0.0838183
0.0858654
0.0873369
0.0882373
0.0888628
0.0895452
0.090468
0.0916281
0.0929797
0.0944227
0.0957527
0.0967268
0.0971546
0.096942
0.0960808
0.0946189
0.0926319
0.0902053
0.0874243
0.0843687
0.0811104
0.0777127
0.0742306
0.0707106
0.0671918
0.0637068
0.0602818
0.0569379
0.0536918
0.0505559
0.0475394
0.0446487
0.0418877
0.0392583
0.0367607
0.0343938
0.0321555
0.0300425
0.0280512
0.0261774
0.0244165
0.0227636
0.0212139
0.0197622
0.0184035
0.0171329
0.0159455
0.0148365
0.0138014
0.0128356
0.0119351
0.0110956
0.0103134
0.00958485
0.00890639
0.00827478
0.00768694
0.00713997
0.00663113
0.00615786
0.00571777
0.0053086
0.00492825
0.00457476
0.00424628
0.00394112
0.00365766
0.00339441
0.00314999
0.00292309
0.00271251
0.00251713
0.00233588
0.0021678
0.00201197
0.00186755
0.00173373
0.00160977
0.00149495
0.00138863
0.00129014
0.00119893
0.00111433
0.00103598
0.000962903
0.000895352
0.000831159
0.000772752
0.000713497
0.000664057
0.000601182
0.00056679
0.000475435
0.000487661
0.000284272
0.000474788
-0.000136663
0.000740584
-0.0013198
-0.0405098
-0.0186525
0.000626949
0.014555
0.0238418
0.0304384
0.0357756
0.0400533
0.0431735
0.0454795
0.0474007
0.0490948
0.0505856
0.051927
0.0531824
0.0543844
0.0555439
0.0566655
0.0577544
0.0588229
0.0598907
0.0609602
0.0619977
0.0629789
0.0639508
0.0649743
0.0659937
0.0669182
0.0678398
0.0689099
0.0699749
0.0708087
0.0716475
0.0728349
0.0741174
0.0751665
0.0763227
0.0779665
0.0798403
0.0813532
0.0821606
0.0824646
0.0826319
0.082839
0.083174
0.0836091
0.0840795
0.0846347
0.0853448
0.086259
0.0873597
0.0885301
0.0895857
0.0903323
0.0906194
0.0903652
0.0895515
0.0882066
0.0863863
0.0841599
0.0816005
0.0787792
0.075762
0.072608
0.0693691
0.0660898
0.0628077
0.0595539
0.0563541
0.0532286
0.0501934
0.0472608
0.0444395
0.0417358
0.0391535
0.0366944
0.0343587
0.0321455
0.0300527
0.0280774
0.026216
0.0244646
0.0228189
0.0212743
0.0198261
0.0184697
0.0172002
0.0160131
0.0149037
0.0138676
0.0129005
0.0119982
0.0111568
0.0103725
0.00964165
0.00896087
0.00832691
0.00773671
0.00718739
0.00667624
0.00620071
0.00575841
0.00534711
0.0049647
0.00460923
0.00427886
0.00397187
0.00368668
0.00342179
0.00317579
0.00294741
0.00273541
0.00253869
0.00235617
0.0021869
0.00202994
0.00188445
0.00174962
0.00162471
0.001509
0.00140182
0.00130254
0.00121059
0.00112528
0.00104627
0.000972567
0.00090443
0.000839683
0.000780755
0.000721009
0.000671107
0.000607791
0.000572988
0.000481226
0.000493091
0.000289293
0.000479528
-0.000132451
0.000744717
-0.00131691
-0.0428987
-0.0177718
0.00381653
0.0180714
0.0263968
0.0321111
0.0370688
0.0410628
0.043835
0.0458831
0.0476711
0.0492796
0.0507024
0.0519992
0.0532301
0.0544183
0.0555706
0.056689
0.0577752
0.0588417
0.0599112
0.0609816
0.0620061
0.0629673
0.0639524
0.0650333
0.0660752
0.0669143
0.0677196
0.0688086
0.0700511
0.0710798
0.0720225
0.0733238
0.0749983
0.0765541
0.0774583
0.0776584
0.0775998
0.0775833
0.0776307
0.0777722
0.0779724
0.0781176
0.0782352
0.0783756
0.0785506
0.0788215
0.0792517
0.079888
0.0807371
0.0817373
0.0827624
0.0836486
0.0842374
0.0844108
0.0841037
0.0833011
0.0820246
0.0803201
0.0782465
0.0758673
0.073246
0.0704424
0.0675106
0.0644986
0.061448
0.0583938
0.0553654
0.0523868
0.0494773
0.0466519
0.0439221
0.0412964
0.0387804
0.0363777
0.03409
0.0319176
0.0298595
0.0279136
0.0260772
0.0243471
0.0227194
0.0211902
0.019755
0.0184096
0.0171496
0.0159704
0.0148678
0.0138374
0.0128752
0.011977
0.0111391
0.0103578
0.00962947
0.00895082
0.00831866
0.00772998
0.00718194
0.00667187
0.00619724
0.00575571
0.00534504
0.00496317
0.00460814
0.00427813
0.00397146
0.00368651
0.00342182
0.00317599
0.00294773
0.00273584
0.0025392
0.00235675
0.00218751
0.00203059
0.00188512
0.0017503
0.00162539
0.00150968
0.0014025
0.0013032
0.00121124
0.00112591
0.00104688
0.000973161
0.000905003
0.000840235
0.000781285
0.000721518
0.000671592
0.000608259
0.000573429
0.00048166
0.000493482
0.000289709
0.000479848
-0.000132009
0.000744899
-0.00131633
-0.0456769
-0.0163607
0.00804893
0.0223414
0.0291763
0.033844
0.0384565
0.0421252
0.0444984
0.0462931
0.04796
0.0494831
0.05084
0.0520979
0.0533074
0.0544817
0.0556222
0.0567262
0.0577948
0.0588526
0.0599382
0.0610374
0.0620535
0.0629403
0.0638489
0.0649636
0.0661655
0.0671877
0.0681053
0.0692864
0.0708283
0.0723543
0.0733298
0.0735147
0.0732845
0.0731225
0.0730743
0.0730664
0.0731444
0.0732376
0.0732385
0.0732039
0.0731808
0.0731259
0.0730691
0.0730558
0.0731023
0.0732551
0.0735619
0.0740613
0.0747691
0.0756555
0.0766381
0.0775897
0.0783663
0.0788394
0.0789175
0.0785532
0.0777383
0.0764944
0.0748633
0.0728977
0.0706548
0.068192
0.0655635
0.062819
0.0600024
0.0571519
0.0542999
0.0514737
0.0486953
0.0459826
0.0433494
0.0408063
0.0383611
0.0360189
0.033783
0.0316547
0.0296343
0.0277206
0.0259118
0.0242052
0.0225976
0.0210855
0.019665
0.0183322
0.0170829
0.015913
0.0148182
0.0137947
0.0128382
0.0119451
0.0111115
0.0103339
0.00960872
0.00893281
0.00830301
0.00771637
0.00717009
0.00666154
0.00618823
0.00574784
0.00533816
0.00495714
0.00460286
0.0042735
0.00396738
0.00368293
0.00341866
0.00317321
0.00294528
0.00273367
0.00253727
0.00235504
0.002186
0.00202924
0.00188392
0.00174924
0.00162444
0.00150883
0.00140174
0.00130252
0.00121063
0.00112537
0.00104639
0.000972719
0.000904606
0.000839878
0.000780962
0.000721229
0.00067133
0.000608029
0.000573213
0.000481487
0.000493296
0.000289609
0.000479655
-0.000131972
0.000744598
-0.00131594
-0.0487967
-0.0142533
0.0134719
0.0272874
0.0320115
0.0355606
0.0398908
0.0431663
0.0450998
0.0466589
0.0482092
0.0496385
0.0509275
0.052149
0.053344
0.05452
0.055673
0.0567841
0.0578335
0.0588471
0.0599061
0.0610487
0.0621818
0.0632084
0.0642329
0.0654863
0.0669949
0.0684467
0.069384
0.0695397
0.0692054
0.0689219
0.0688293
0.0687753
0.0687627
0.0688347
0.068855
0.0687732
0.0686914
0.0686121
0.0684764
0.0683283
0.0682088
0.0680898
0.0679909
0.0679462
0.0679689
0.0680955
0.0683639
0.0688074
0.0694454
0.0702659
0.0712167
0.0722023
0.0731
0.0737848
0.0741533
0.0741369
0.0737041
0.072855
0.0716141
0.0700217
0.0681273
0.0659834
0.0636427
0.0611549
0.0585651
0.0559136
0.0532352
0.0505596
0.0479116
0.0453113
0.0427748
0.0403148
0.0379408
0.0356596
0.0334758
0.0313922
0.0294098
0.0275287
0.0257477
0.0240648
0.0224775
0.0209828
0.0195771
0.0182569
0.0170184
0.0158577
0.0147709
0.0137541
0.0128035
0.0119153
0.0110859
0.0103119
0.00958986
0.00891662
0.0082891
0.00770443
0.00715983
0.00665273
0.00618067
0.00574134
0.00533258
0.00495235
0.00459874
0.00426997
0.00396436
0.00368033
0.00341644
0.0031713
0.00294365
0.00273228
0.00253609
0.00235403
0.00218514
0.00202851
0.0018833
0.00174871
0.001624
0.00150846
0.00140143
0.00130227
0.00121042
0.0011252
0.00104625
0.000972609
0.000904519
0.000839812
0.000780914
0.000721198
0.000671308
0.000608026
0.000573209
0.000481513
0.000493294
0.000289686
0.000479617
-0.000131777
0.000744416
-0.00131543
-0.0522367
-0.0112884
0.0201886
0.0327349
0.0347137
0.0372296
0.0413668
0.0441813
0.0456841
0.0470577
0.0485068
0.049845
0.051068
0.0522412
0.0533913
0.0545303
0.0556745
0.0568271
0.0579761
0.0591342
0.0603715
0.0617511
0.0631971
0.0644566
0.0651973
0.0652588
0.0649143
0.0646295
0.0645487
0.0645093
0.0644666
0.0645099
0.0645633
0.064507
0.0644038
0.0643385
0.0642405
0.0640784
0.0639289
0.0638003
0.0636479
0.0634998
0.0633875
0.0632894
0.0632191
0.0632033
0.0632535
0.0634001
0.0636752
0.064108
0.0647188
0.065506
0.0664374
0.0674428
0.0684204
0.0692554
0.0698418
0.0700987
0.0699773
0.0694602
0.0685563
0.0672934
0.0657123
0.0638599
0.0617857
0.0595381
0.0571628
0.054701
0.0521893
0.0496593
0.0471378
0.0446472
0.0422054
0.039827
0.0375231
0.0353022
0.03317
0.0311306
0.0291862
0.0273374
0.0255841
0.0239249
0.0223579
0.0208804
0.0194895
0.018182
0.0169543
0.0158028
0.0147239
0.0137138
0.012769
0.0118857
0.0110606
0.0102902
0.00957127
0.00890069
0.00827546
0.00769274
0.00714982
0.00664416
0.00617333
0.00573506
0.00532721
0.00494776
0.00459482
0.00426662
0.0039615
0.0036779
0.00341437
0.00316954
0.00294216
0.00273102
0.00253502
0.00235313
0.00218439
0.00202789
0.00188278
0.00174828
0.00162365
0.00150817
0.0014012
0.00130208
0.00121027
0.00112509
0.00104617
0.000972555
0.000904486
0.000839797
0.000780912
0.00072121
0.000671328
0.000608061
0.000573241
0.000481574
0.000493323
0.000289794
0.000479603
-0.000131548
0.000744245
-0.00131487
-0.0559442
-0.00723185
0.028322
0.0384555
0.037078
0.0387654
0.0427402
0.0449982
0.0461033
0.0473387
0.0487018
0.0499864
0.0512229
0.0524734
0.0537549
0.055066
0.0563963
0.0577064
0.0588981
0.0598075
0.0602716
0.0602854
0.0600813
0.0599415
0.0599283
0.0599267
0.0599179
0.0599828
0.0600787
0.0600801
0.0600036
0.0599576
0.059917
0.059807
0.0596737
0.0595822
0.0594824
0.059346
0.0592284
0.0591373
0.0590366
0.0589452
0.0588883
0.0588497
0.0588401
0.0588815
0.0589844
0.0591749
0.0594807
0.0599281
0.060537
0.061312
0.0622346
0.0632535
0.0642856
0.0652284
0.0659784
0.066449
0.0665795
0.0663387
0.065722
0.064746
0.0634422
0.0618517
0.06002
0.0579935
0.0558173
0.0535331
0.0511785
0.0487865
0.0463857
0.044
0.0416493
0.0393496
0.0371136
0.0349511
0.0328692
0.0308729
0.0289655
0.0271484
0.0254223
0.0237863
0.0222392
0.0207787
0.0194024
0.0181073
0.0168903
0.0157479
0.0146768
0.0136735
0.0127343
0.011856
0.0110351
0.0102683
0.00955248
0.00888455
0.0082616
0.00768083
0.00713959
0.00663537
0.00616578
0.00572857
0.00532164
0.00494297
0.00459071
0.00426309
0.00395847
0.00367531
0.00341215
0.00316764
0.00294053
0.00272963
0.00253383
0.00235212
0.00218353
0.00202715
0.00188216
0.00174776
0.00162321
0.0015078
0.00140089
0.00130183
0.00121006
0.00112491
0.00104603
0.000972442
0.000904397
0.000839729
0.000780862
0.000721177
0.000671305
0.000608056
0.000573235
0.0004816
0.000493317
0.000289873
0.000479556
-0.000131341
0.000744039
-0.00131432
-0.0599083
-0.00188516
0.0379715
0.0443403
0.0392402
0.0404676
0.0442844
0.045957
0.046779
0.0479433
0.049223
0.0504133
0.0515259
0.0525528
0.0534403
0.0541172
0.0545331
0.0547098
0.0547519
0.0547695
0.0547965
0.0548231
0.0548779
0.0549991
0.0551365
0.0551981
0.0551958
0.0552152
0.0552513
0.0552288
0.0551595
0.0551228
0.0551026
0.0550411
0.0549689
0.0549359
0.0549031
0.0548451
0.0548042
0.0547876
0.0547668
0.0547556
0.0547748
0.0548123
0.0548771
0.0549881
0.0551546
0.0553998
0.0557482
0.0562234
0.0568451
0.0576213
0.0585428
0.0595725
0.0606431
0.0616643
0.0625382
0.0631761
0.06351
0.0634981
0.0631247
0.062396
0.0613354
0.0599777
0.0583641
0.0565385
0.0545448
0.0524246
0.050216
0.0479531
0.0456656
0.043379
0.0411146
0.0388897
0.0367185
0.0346118
0.032578
0.0306232
0.0287513
0.0269648
0.0252648
0.0236513
0.0221234
0.0206795
0.0193173
0.0180343
0.0168277
0.0156942
0.0146307
0.0136338
0.0127003
0.0118268
0.01101
0.0102467
0.00953389
0.00886856
0.00824784
0.00766899
0.0071294
0.00662659
0.00615822
0.00572206
0.00531603
0.00493814
0.00458655
0.00425951
0.00395539
0.00367265
0.00340986
0.00316567
0.00293884
0.00272817
0.00253258
0.00235104
0.0021826
0.00202636
0.00188148
0.00174718
0.00162271
0.00150738
0.00140053
0.00130152
0.0012098
0.0011247
0.00104585
0.000972291
0.000904272
0.000839627
0.000780778
0.000721112
0.000671252
0.000608023
0.000573202
0.0004816
0.000493288
0.000289929
0.000479488
-0.000131153
0.000743813
-0.00131379
-0.0642224
0.00438213
0.0482344
0.049248
0.0403077
0.0413619
0.044777
0.0456791
0.0460878
0.0468951
0.0476964
0.0483268
0.0487908
0.0490883
0.0492463
0.0493138
0.049339
0.0493637
0.0494229
0.0495236
0.0496324
0.0497157
0.0497913
0.0498982
0.0500181
0.0500949
0.0501354
0.0501993
0.0502839
0.0503331
0.0503525
0.0504015
0.0504675
0.0505036
0.0505309
0.0505892
0.0506488
0.0506882
0.0507404
0.0508123
0.0508814
0.0509584
0.0510609
0.0511796
0.0513225
0.0515061
0.0517391
0.0520422
0.0524375
0.0529467
0.0535886
0.0543739
0.0552993
0.0563387
0.0574375
0.0585167
0.0594851
0.0602547
0.060753
0.0609306
0.0607625
0.0602463
0.0593978
0.0582455
0.0568266
0.0551821
0.0533542
0.051384
0.0493098
0.0471664
0.0449843
0.0427903
0.0406066
0.0384521
0.0363419
0.034288
0.0322998
0.0303843
0.0285462
0.0267888
0.0251138
0.0235217
0.0220122
0.020584
0.0192354
0.017964
0.0167673
0.0156423
0.0145861
0.0135956
0.0126674
0.0117985
0.0109856
0.0102258
0.00951587
0.00885304
0.00823448
0.00765748
0.00711948
0.00661804
0.00615085
0.00571571
0.00531055
0.00493341
0.00458247
0.00425599
0.00395235
0.00367003
0.0034076
0.00316372
0.00293715
0.00272672
0.00253133
0.00234997
0.00218167
0.00202556
0.0018808
0.00174659
0.00162221
0.00150695
0.00140016
0.0013012
0.00120953
0.00112447
0.00104565
0.000972126
0.000904133
0.000839512
0.000780681
0.000721035
0.000671187
0.000607978
0.000573158
0.00048159
0.000493248
0.000289975
0.00047941
-0.000130976
0.00074358
-0.00131328
-0.0694308
0.0108976
0.058065
0.0523939
0.0400318
0.041221
0.0439848
0.0440234
0.0438981
0.0440944
0.0441857
0.0441411
0.0440267
0.0438951
0.0438005
0.0437638
0.0437753
0.0438229
0.0439093
0.0440359
0.0441821
0.0443246
0.0444722
0.0446504
0.044846
0.045018
0.0451693
0.0453427
0.0455339
0.045698
0.0458367
0.0459968
0.0461695
0.0463169
0.0464543
0.0466138
0.0467729
0.0469135
0.0470622
0.0472254
0.0473849
0.0475497
0.0477349
0.0479333
0.0481522
0.0484064
0.0487039
0.0490637
0.049506
0.0500508
0.0507166
0.051515
0.0524475
0.0534958
0.0546159
0.0557387
0.0567799
0.0576537
0.0582853
0.0586198
0.0586251
0.0582911
0.0576269
0.0566554
0.0554094
0.0539271
0.0522489
0.0504151
0.0484638
0.0464301
0.0443453
0.0422369
0.0401284
0.0380395
0.0359863
0.0339819
0.0320365
0.0301579
0.0283517
0.0266217
0.0249703
0.0233985
0.0219064
0.0204932
0.0191573
0.017897
0.0167097
0.0155929
0.0145436
0.013559
0.0126359
0.0117714
0.0109623
0.0102057
0.00949861
0.00883818
0.00822166
0.00764643
0.00710996
0.00660983
0.00614376
0.00570959
0.00530527
0.00492886
0.00457854
0.00425259
0.00394942
0.00366749
0.00340541
0.00316183
0.00293552
0.00272531
0.00253011
0.00234891
0.00218077
0.00202478
0.00188012
0.00174601
0.0016217
0.00150651
0.00139979
0.00130089
0.00120926
0.00112423
0.00104545
0.000971956
0.000903989
0.000839391
0.00078058
0.000720952
0.000671116
0.000607927
0.000573108
0.000481573
0.000493202
0.000290013
0.000479329
-0.00013081
0.000743348
-0.00131278
-0.0744411
0.0182485
0.0674808
0.0538707
0.0385275
0.0397132
0.0413228
0.0403051
0.0394981
0.0390304
0.038598
0.0382565
0.0380165
0.0378695
0.0378241
0.0378686
0.0379754
0.0381243
0.0383129
0.0385416
0.0387964
0.0390601
0.0393364
0.0396409
0.0399606
0.0402622
0.0405464
0.040846
0.0411575
0.0414447
0.0417069
0.0419819
0.0422637
0.0425221
0.042768
0.0430281
0.0432848
0.0435229
0.0437645
0.0440153
0.0442607
0.0445083
0.0447715
0.0450445
0.0453343
0.0456542
0.046012
0.0464251
0.046912
0.0474919
0.0481823
0.0489958
0.049937
0.0509937
0.0521301
0.0532861
0.0543839
0.0553408
0.0560811
0.0565459
0.0566976
0.0565199
0.0560156
0.0552026
0.0541098
0.0527723
0.0512288
0.0495184
0.0476788
0.0457454
0.0437499
0.0417204
0.0396813
0.0376531
0.0356529
0.0336945
0.031789
0.0299449
0.0281685
0.0264643
0.024835
0.0232822
0.0218065
0.0204073
0.0190836
0.0178336
0.0166552
0.015546
0.0145033
0.0135243
0.0126061
0.0117458
0.0109402
0.0101867
0.00948222
0.00882405
0.00820949
0.00763593
0.0071009
0.00660201
0.00613701
0.00570376
0.00530023
0.00492451
0.00457478
0.00424934
0.00394661
0.00366506
0.00340331
0.00316001
0.00293395
0.00272395
0.00252894
0.0023479
0.00217989
0.00202402
0.00187947
0.00174544
0.00162122
0.00150609
0.00139943
0.00130057
0.00120899
0.001124
0.00104526
0.000971788
0.000903845
0.000839269
0.000780476
0.000720867
0.000671043
0.000607873
0.000573055
0.000481552
0.000493155
0.000290046
0.000479247
-0.000130653
0.00074312
-0.00131231
-0.0799546
0.0253767
0.0748362
0.0520574
0.0342493
0.0352896
0.0356583
0.0339679
0.032962
0.0323814
0.0319738
0.0317632
0.0316866
0.0317106
0.0318386
0.0320549
0.0323298
0.0326428
0.03299
0.0333708
0.0337737
0.0341852
0.0346067
0.0350492
0.0355013
0.0359358
0.0363517
0.0367753
0.0372043
0.0376096
0.037989
0.0383736
0.0387592
0.0391215
0.0394686
0.0398229
0.0401704
0.0404985
0.0408256
0.0411572
0.0414813
0.0418045
0.0421389
0.04248
0.0428342
0.043214
0.0436266
0.0440885
0.044617
0.0452299
0.0459443
0.0467734
0.0477239
0.0487883
0.0499377
0.0511193
0.0522615
0.0532849
0.0541141
0.0546877
0.0549634
0.0549196
0.0545542
0.0538802
0.0529228
0.0517144
0.0502915
0.0486924
0.0469541
0.0451119
0.043198
0.0412409
0.0392656
0.0372933
0.0353421
0.0334263
0.0315579
0.0297458
0.0279972
0.0263168
0.0247082
0.0231732
0.0217128
0.0203268
0.0190143
0.017774
0.016604
0.015502
0.0144654
0.0134917
0.0125781
0.0117216
0.0109194
0.0101688
0.00946677
0.00881073
0.008198
0.00762602
0.00709234
0.00659462
0.00613063
0.00569825
0.00529547
0.00492039
0.00457122
0.00424627
0.00394394
0.00366276
0.00340131
0.00315829
0.00293245
0.00272266
0.00252782
0.00234693
0.00217905
0.0020233
0.00187884
0.0017449
0.00162075
0.00150569
0.00139908
0.00130027
0.00120873
0.00112378
0.00104506
0.000971623
0.000903705
0.00083915
0.000780374
0.000720783
0.00067097
0.000607819
0.000573002
0.000481529
0.000493106
0.000290074
0.000479166
-0.000130507
0.000742901
-0.00131186
-0.087269
0.0305913
0.078333
0.0452931
0.0257731
0.027305
0.0274595
0.0261373
0.0255836
0.0253063
0.0252019
0.0253033
0.0255173
0.0258075
0.0261802
0.0266208
0.0271021
0.0276058
0.0281297
0.0286744
0.0292318
0.0297913
0.030354
0.0309288
0.0315065
0.032065
0.0326025
0.0331404
0.0336775
0.0341904
0.0346761
0.0351603
0.0356404
0.0360964
0.0365345
0.036974
0.0374034
0.0378122
0.0382161
0.0386204
0.0390151
0.039406
0.0398042
0.0402062
0.0406181
0.0410515
0.0415135
0.0420194
0.0425854
0.0432288
0.0439659
0.0448103
0.0457701
0.0468416
0.0480013
0.0492028
0.0503801
0.0514573
0.0523598
0.0530244
0.0534053
0.0534768
0.0532319
0.0526798
0.051842
0.0507484
0.0494336
0.0479345
0.0462877
0.0445284
0.0426887
0.0407976
0.0388808
0.03696
0.0350537
0.0331773
0.031343
0.0295606
0.0278376
0.0261795
0.02459
0.0230715
0.0216253
0.0202515
0.0189496
0.0177184
0.0165561
0.0154608
0.01443
0.0134612
0.0125518
0.011699
0.0108999
0.010152
0.00945228
0.00879824
0.00818722
0.00761672
0.00708431
0.00658769
0.00612464
0.00569308
0.005291
0.00491652
0.00456787
0.00424337
0.00394144
0.00366059
0.00339943
0.00315666
0.00293105
0.00272144
0.00252676
0.00234601
0.00217826
0.00202261
0.00187824
0.00174439
0.0016203
0.0015053
0.00139874
0.00129998
0.00120848
0.00112356
0.00104488
0.000971465
0.000903569
0.000839034
0.000780276
0.000720701
0.000670899
0.000607765
0.000572949
0.000481506
0.000493058
0.000290098
0.000479088
-0.000130372
0.000742693
-0.00131144
-0.103477
0.0235201
0.0711775
0.0317203
0.0138879
0.0176854
0.0186893
0.0181896
0.0182405
0.0184066
0.0187314
0.0192336
0.0197984
0.0203941
0.0210345
0.0217114
0.0224028
0.0230954
0.0237904
0.0244913
0.0251935
0.0258896
0.026581
0.0272755
0.0279661
0.0286353
0.0292807
0.0299202
0.0305534
0.0311613
0.0317405
0.0323129
0.0328767
0.0334153
0.0339338
0.0344486
0.0349506
0.0354305
0.0359024
0.0363711
0.0368283
0.0372791
0.037734
0.03819
0.0386531
0.0391341
0.03964
0.0401852
0.0407851
0.0414561
0.0422142
0.0430729
0.0440417
0.0451196
0.0462877
0.0475049
0.0487103
0.0498314
0.0507946
0.0515357
0.0520064
0.0521772
0.0520373
0.0515921
0.0508601
0.0498685
0.0486503
0.0472411
0.045677
0.0439926
0.0422203
0.0403895
0.038526
0.0366522
0.0347873
0.0329469
0.0311441
0.029389
0.0276897
0.0260521
0.0244803
0.0229771
0.0215441
0.0201816
0.0188895
0.0176666
0.0165116
0.0154224
0.014397
0.0134328
0.0125273
0.0116779
0.0108818
0.0101363
0.00943878
0.00878659
0.00817717
0.00760804
0.00707682
0.00658121
0.00611905
0.00568824
0.00528682
0.0049129
0.00456474
0.00424066
0.00393909
0.00365856
0.00339768
0.00315514
0.00292972
0.00272029
0.00252577
0.00234515
0.00217751
0.00202196
0.00187769
0.0017439
0.00161988
0.00150494
0.00139843
0.00129971
0.00120825
0.00112336
0.0010447
0.000971314
0.00090344
0.000838924
0.000780181
0.000720622
0.00067083
0.000607713
0.000572898
0.000481482
0.000493012
0.00029012
0.000479013
-0.000130245
0.000742496
-0.00131105
-0.124264
-0.000675999
0.0521863
0.0155737
0.00251609
0.00858553
0.0103206
0.0105913
0.011289
0.0119918
0.0128041
0.0137299
0.014652
0.0155499
0.0164489
0.0173493
0.0182364
0.0191026
0.0199534
0.0207955
0.0216277
0.0224453
0.0232502
0.02405
0.0248399
0.0256055
0.0263448
0.0270728
0.02779
0.0284806
0.0291412
0.0297905
0.0304277
0.0310386
0.0316272
0.0322082
0.0327739
0.0333164
0.0338482
0.0343737
0.034886
0.0353897
0.0358947
0.0363985
0.0369068
0.0374301
0.0379749
0.0385551
0.0391853
0.0398812
0.0406585
0.0415305
0.0425079
0.0435916
0.0447664
0.045996
0.0472239
0.0483808
0.0493946
0.0502005
0.0507482
0.051005
0.0509568
0.0506058
0.0499676
0.049067
0.0479354
0.0466071
0.0451176
0.0435011
0.0417902
0.0400142
0.0381994
0.0363686
0.0345415
0.0327343
0.0309603
0.0292304
0.0275529
0.0259341
0.0243787
0.0228896
0.0214687
0.0201167
0.0188336
0.0176186
0.0164702
0.0153868
0.0143663
0.0134064
0.0125045
0.0116582
0.0108648
0.0101217
0.00942618
0.00877571
0.00816778
0.00759993
0.00706981
0.00657515
0.00611381
0.00568371
0.00528289
0.00490951
0.0045618
0.00423811
0.00393688
0.00365664
0.00339601
0.00315369
0.00292847
0.0027192
0.00252483
0.00234433
0.0021768
0.00202135
0.00187715
0.00174343
0.00161948
0.00150459