/*--------------------------------*- C++ -*----------------------------------*\
| =========                 |                                                 |
| \\      /  F ield         | OpenFOAM: The Open Source CFD Toolbox           |
|  \\    /   O peration     | Version:  4.x                                   |
|   \\  /    A nd           | Web:      www.OpenFOAM.org                      |
|    \\/     M anipulation  |                                                 |
\*---------------------------------------------------------------------------*/
FoamFile
{
    version     2.0;
    format      ascii;
    class       surfaceScalarField;
    location    "1";
    object      phi;
}
// * * * * * * * * * * * * * * * * * * * * * * * * * * * * * * * * * * * * * //

dimensions      [0 3 -1 0 0 0 0];

internalField   nonuniform List<scalar> 
23728
(
9.33063e-07
-4.06947e-09
9.37507e-07
-4.44398e-09
9.41681e-07
-4.17399e-09
9.45048e-07
-3.36658e-09
9.47692e-07
-2.64484e-09
9.49866e-07
-2.17317e-09
9.51688e-07
-1.82306e-09
9.5324e-07
-1.55197e-09
9.54605e-07
-1.36449e-09
9.55838e-07
-1.23337e-09
9.5697e-07
-1.13214e-09
9.58023e-07
-1.05356e-09
9.59019e-07
-9.95256e-10
9.59972e-07
-9.5338e-10
9.60896e-07
-9.24093e-10
9.61801e-07
-9.05627e-10
9.62697e-07
-8.95674e-10
9.63589e-07
-8.92704e-10
9.64484e-07
-8.94162e-10
9.65382e-07
-8.98657e-10
9.66285e-07
-9.0319e-10
9.67191e-07
-9.05396e-10
9.68091e-07
-8.99665e-10
9.6897e-07
-8.78923e-10
9.69799e-07
-8.29121e-10
9.70529e-07
-7.30043e-10
9.71082e-07
-5.52272e-10
9.71348e-07
-2.65998e-10
9.71219e-07
1.30267e-10
5.66798e-10
9.70652e-07
2.45235e-06
-1.47746e-08
2.46419e-06
-1.62777e-08
2.4752e-06
-1.51883e-08
2.48401e-06
-1.21739e-08
2.49093e-06
-9.56374e-09
2.49661e-06
-7.85577e-09
2.50136e-06
-6.57714e-09
2.50541e-06
-5.60069e-09
2.50898e-06
-4.93105e-09
2.5122e-06
-4.45935e-09
2.51516e-06
-4.09394e-09
2.51792e-06
-3.81024e-09
2.52053e-06
-3.60059e-09
2.52302e-06
-3.44886e-09
2.52544e-06
-3.3439e-09
2.52781e-06
-3.27678e-09
2.53016e-06
-3.24209e-09
2.5325e-06
-3.23098e-09
2.53484e-06
-3.23785e-09
2.53719e-06
-3.25381e-09
2.53956e-06
-3.27242e-09
2.54194e-06
-3.28077e-09
2.5443e-06
-3.26393e-09
2.54662e-06
-3.19185e-09
2.54881e-06
-3.01954e-09
2.55075e-06
-2.66819e-09
2.55223e-06
-2.03387e-09
2.55296e-06
-9.9197e-10
2.55262e-06
4.70683e-10
2.11955e-09
2.55106e-06
3.53603e-06
-3.02449e-08
3.55358e-06
-3.38303e-08
3.5696e-06
-3.1215e-08
3.5822e-06
-2.47713e-08
3.5921e-06
-1.94584e-08
3.60021e-06
-1.59659e-08
3.60696e-06
-1.33322e-08
3.61272e-06
-1.13623e-08
3.61782e-06
-1.00249e-08
3.62243e-06
-9.07235e-09
3.62667e-06
-8.3308e-09
3.63061e-06
-7.75695e-09
3.63434e-06
-7.33206e-09
3.63792e-06
-7.02468e-09
3.64139e-06
-6.81141e-09
3.64479e-06
-6.67682e-09
3.64815e-06
-6.60686e-09
3.65151e-06
-6.58678e-09
3.65487e-06
-6.60164e-09
3.65825e-06
-6.63759e-09
3.66166e-06
-6.67742e-09
3.66508e-06
-6.70064e-09
3.66849e-06
-6.67291e-09
3.67184e-06
-6.54083e-09
3.67503e-06
-6.20928e-09
3.67788e-06
-5.52345e-09
3.68011e-06
-4.25562e-09
3.68124e-06
-2.12498e-09
3.68077e-06
9.4739e-10
4.53707e-09
3.67835e-06
4.27723e-06
-4.91132e-08
4.29931e-06
-5.59045e-08
4.31888e-06
-5.07895e-08
4.33395e-06
-3.98396e-08
4.34579e-06
-3.12959e-08
4.35545e-06
-2.56272e-08
4.36345e-06
-2.13343e-08
4.37029e-06
-1.82103e-08
4.37638e-06
-1.61073e-08
4.38189e-06
-1.45882e-08
4.38696e-06
-1.34011e-08
4.39169e-06
-1.24839e-08
4.39616e-06
-1.18053e-08
4.40045e-06
-1.13115e-08
4.40461e-06
-1.09717e-08
4.40869e-06
-1.07563e-08
4.41273e-06
-1.06484e-08
4.41676e-06
-1.06174e-08
4.4208e-06
-1.0647e-08
4.42487e-06
-1.07072e-08
4.42897e-06
-1.07798e-08
4.4331e-06
-1.08239e-08
4.43722e-06
-1.07972e-08
4.44129e-06
-1.06075e-08
4.44519e-06
-1.01175e-08
4.44874e-06
-9.06869e-09
4.45158e-06
-7.08875e-09
4.4531e-06
-3.64587e-09
4.45257e-06
1.48215e-09
7.7758e-09
4.44934e-06
4.74915e-06
-7.05149e-08
4.77488e-06
-8.16374e-08
4.79683e-06
-7.27346e-08
4.81336e-06
-5.63744e-08
4.82636e-06
-4.42953e-08
4.83688e-06
-3.61523e-08
4.84556e-06
-3.00077e-08
4.85302e-06
-2.56721e-08
4.85968e-06
-2.27703e-08
4.86573e-06
-2.06398e-08
4.8713e-06
-1.89697e-08
4.8765e-06
-1.7682e-08
4.88142e-06
-1.67271e-08
4.88614e-06
-1.60312e-08
4.89072e-06
-1.5553e-08
4.89522e-06
-1.5253e-08
4.89967e-06
-1.5104e-08
4.90412e-06
-1.50663e-08
4.90859e-06
-1.51129e-08
4.91308e-06
-1.52064e-08
4.91762e-06
-1.53172e-08
4.92219e-06
-1.53956e-08
4.92678e-06
-1.53794e-08
4.93132e-06
-1.51524e-08
4.93573e-06
-1.4522e-08
4.93979e-06
-1.31357e-08
4.94314e-06
-1.04351e-08
4.94507e-06
-5.56996e-09
4.94458e-06
1.97566e-09
1.18136e-08
4.94054e-06
5.01174e-06
-9.39601e-08
5.04044e-06
-1.1034e-07
5.06377e-06
-9.60615e-08
5.08102e-06
-7.36347e-08
5.09459e-06
-5.78564e-08
5.10544e-06
-4.70053e-08
5.11435e-06
-3.89184e-08
5.12207e-06
-3.33968e-08
5.129e-06
-2.97047e-08
5.13531e-06
-2.6948e-08
5.14112e-06
-2.47838e-08
5.14655e-06
-2.31145e-08
5.1517e-06
-2.18767e-08
5.15664e-06
-2.0969e-08
5.16144e-06
-2.03519e-08
5.16615e-06
-1.99625e-08
5.17082e-06
-1.97779e-08
5.17548e-06
-1.97316e-08
5.18017e-06
-1.98045e-08
5.1849e-06
-1.99314e-08
5.18967e-06
-2.00936e-08
5.19449e-06
-2.02096e-08
5.19933e-06
-2.02251e-08
5.20416e-06
-1.99763e-08
5.20888e-06
-1.92483e-08
5.21332e-06
-1.75718e-08
5.2171e-06
-1.42155e-08
5.21945e-06
-7.9117e-09
5.21911e-06
2.3239e-09
1.66624e-08
5.21427e-06
5.11357e-06
-1.19272e-07
5.14466e-06
-1.41434e-07
5.16858e-06
-1.19981e-07
5.18606e-06
-9.1114e-08
5.19974e-06
-7.15383e-08
5.21051e-06
-5.77831e-08
5.21936e-06
-4.77613e-08
5.22709e-06
-4.11315e-08
5.23407e-06
-3.6682e-08
5.24042e-06
-3.3305e-08
5.24629e-06
-3.06514e-08
5.25178e-06
-2.86032e-08
5.25698e-06
-2.70807e-08
5.26198e-06
-2.59617e-08
5.26683e-06
-2.52043e-08
5.27159e-06
-2.47293e-08
5.27633e-06
-2.45085e-08
5.28105e-06
-2.44597e-08
5.28581e-06
-2.4559e-08
5.2906e-06
-2.47277e-08
5.29545e-06
-2.49424e-08
5.30035e-06
-2.51094e-08
5.30529e-06
-2.51649e-08
5.31024e-06
-2.49241e-08
5.31513e-06
-2.41353e-08
5.31981e-06
-2.22495e-08
5.32393e-06
-1.83353e-08
5.32671e-06
-1.06836e-08
5.32662e-06
2.41201e-09
2.23341e-08
5.32095e-06
5.09456e-06
-1.46333e-07
5.12733e-06
-1.7421e-07
5.1511e-06
-1.43743e-07
5.16836e-06
-1.0838e-07
5.18173e-06
-8.49061e-08
5.19206e-06
-6.81168e-08
5.20056e-06
-5.62569e-08
5.20806e-06
-4.86342e-08
5.21485e-06
-4.34763e-08
5.22105e-06
-3.95023e-08
5.22678e-06
-3.638e-08
5.23213e-06
-3.39611e-08
5.23721e-06
-3.21641e-08
5.24209e-06
-3.0834e-08
5.24682e-06
-2.99458e-08
5.25148e-06
-2.93827e-08
5.2561e-06
-2.91359e-08
5.26072e-06
-2.908e-08
5.26538e-06
-2.92171e-08
5.27008e-06
-2.94219e-08
5.27483e-06
-2.97041e-08
5.27965e-06
-2.99186e-08
5.28452e-06
-3.00388e-08
5.28941e-06
-2.9818e-08
5.2943e-06
-2.90244e-08
5.29906e-06
-2.70012e-08
5.30339e-06
-2.26714e-08
5.30655e-06
-1.38386e-08
5.30678e-06
2.19615e-09
2.89131e-08
5.3002e-06
4.98311e-06
-1.75129e-07
5.01676e-06
-2.07861e-07
5.03977e-06
-1.66751e-07
5.05647e-06
-1.25087e-07
5.06915e-06
-9.75804e-08
5.07873e-06
-7.77015e-08
5.08665e-06
-6.4178e-08
5.09371e-06
-5.56893e-08
5.10011e-06
-4.98814e-08
5.10595e-06
-4.53437e-08
5.11135e-06
-4.17779e-08
5.11639e-06
-3.90024e-08
5.12117e-06
-3.69385e-08
5.12573e-06
-3.5404e-08
5.13018e-06
-3.43869e-08
5.13453e-06
-3.37401e-08
5.13886e-06
-3.34652e-08
5.14319e-06
-3.34047e-08
5.14754e-06
-3.3573e-08
5.15193e-06
-3.38137e-08
5.15638e-06
-3.41501e-08
5.16087e-06
-3.44068e-08
5.1654e-06
-3.45685e-08
5.16993e-06
-3.43546e-08
5.17444e-06
-3.35297e-08
5.17882e-06
-3.13764e-08
5.18281e-06
-2.66592e-08
5.18574e-06
-1.67739e-08
5.18567e-06
2.26504e-09
3.71845e-08
5.1774e-06
4.80024e-06
-2.05694e-07
4.8338e-06
-2.41418e-07
4.85552e-06
-1.88476e-07
4.87127e-06
-1.40836e-07
4.88277e-06
-1.09082e-07
4.89121e-06
-8.61454e-08
4.89819e-06
-7.11612e-08
4.90442e-06
-6.19228e-08
4.91005e-06
-5.55116e-08
4.91514e-06
-5.0437e-08
4.9198e-06
-4.6444e-08
4.9241e-06
-4.33098e-08
4.92814e-06
-4.0976e-08
4.93195e-06
-3.92148e-08
4.93561e-06
-3.8047e-08
4.93913e-06
-3.72634e-08
4.94256e-06
-3.68992e-08
4.94588e-06
-3.67206e-08
4.94908e-06
-3.67803e-08
4.9521e-06
-3.68322e-08
4.95489e-06
-3.69445e-08
4.95733e-06
-3.68419e-08
4.95932e-06
-3.65658e-08
4.9607e-06
-3.57357e-08
4.96136e-06
-3.41876e-08
4.96111e-06
-3.11296e-08
4.95977e-06
-2.53126e-08
4.95693e-06
-1.3925e-08
4.95071e-06
8.51131e-09
5.32811e-08
4.93461e-06
4.55869e-06
-2.3734e-07
4.59018e-06
-2.72903e-07
4.60929e-06
-2.07588e-07
4.62271e-06
-1.54258e-07
4.63166e-06
-1.18026e-07
4.63769e-06
-9.21782e-08
4.6425e-06
-7.5976e-08
4.64667e-06
-6.60888e-08
4.65027e-06
-5.91096e-08
4.65332e-06
-5.3488e-08
4.65589e-06
-4.90155e-08
4.65798e-06
-4.54029e-08
4.65961e-06
-4.26032e-08
4.66071e-06
-4.03113e-08
4.66121e-06
-3.85559e-08
4.66098e-06
-3.70338e-08
4.65988e-06
-3.57916e-08
4.65766e-06
-3.45075e-08
4.65416e-06
-3.32733e-08
4.64911e-06
-3.17849e-08
4.64236e-06
-3.01984e-08
4.63375e-06
-2.82298e-08
4.62325e-06
-2.6066e-08
4.61088e-06
-2.33668e-08
4.59685e-06
-2.01564e-08
4.58144e-06
-1.57286e-08
4.5651e-06
-8.9746e-09
4.54825e-06
2.93008e-09
4.52992e-06
2.68293e-08
8.06669e-08
4.50253e-06
4.25197e-06
-2.67034e-07
4.27636e-06
-2.973e-07
4.28874e-06
-2.19965e-07
4.29596e-06
-1.61479e-07
4.29891e-06
-1.20976e-07
4.2995e-06
-9.27786e-08
4.29925e-06
-7.57345e-08
4.29841e-06
-6.52574e-08
4.29681e-06
-5.75087e-08
4.29422e-06
-5.09035e-08
4.29044e-06
-4.52276e-08
4.28516e-06
-4.01347e-08
4.27814e-06
-3.55814e-08
4.26907e-06
-3.12505e-08
4.25776e-06
-2.72406e-08
4.24402e-06
-2.33018e-08
4.22787e-06
-1.96357e-08
4.20939e-06
-1.60396e-08
4.18893e-06
-1.28049e-08
4.16687e-06
-9.73335e-09
4.1438e-06
-7.12839e-09
4.12028e-06
-4.70895e-09
4.09692e-06
-2.69967e-09
4.07419e-06
-6.51926e-10
4.0526e-06
1.44164e-09
4.03248e-06
4.38636e-09
4.01419e-06
9.33552e-09
3.99814e-06
1.89778e-08
3.98343e-06
4.15626e-08
1.03657e-07
3.96046e-06
3.84377e-06
-2.82253e-07
3.85064e-06
-3.0417e-07
3.84967e-06
-2.18995e-07
3.84556e-06
-1.57369e-07
3.83825e-06
-1.1367e-07
3.82932e-06
-8.38412e-08
3.81943e-06
-6.58509e-08
3.80812e-06
-5.39413e-08
3.79479e-06
-4.41825e-08
3.77903e-06
-3.51426e-08
3.76068e-06
-2.6873e-08
3.73972e-06
-1.91717e-08
3.71646e-06
-1.23178e-08
3.69136e-06
-6.1505e-09
3.66515e-06
-1.03714e-09
3.63858e-06
3.27163e-09
3.61247e-06
6.47988e-09
3.58742e-06
9.00746e-09
3.56398e-06
1.06348e-08
3.54237e-06
1.18815e-08
3.52273e-06
1.25084e-08
3.50497e-06
1.30571e-08
3.48902e-06
1.32496e-08
3.47468e-06
1.3683e-08
3.46193e-06
1.41927e-08
3.45069e-06
1.56264e-08
3.44117e-06
1.88586e-08
3.43375e-06
2.63897e-08
3.42806e-06
4.72474e-08
1.1855e-07
3.41316e-06
3.27287e-06
-2.99909e-07
3.26841e-06
-2.99717e-07
3.25453e-06
-2.05123e-07
3.2359e-06
-1.38732e-07
3.21359e-06
-9.13516e-08
3.18963e-06
-5.98909e-08
3.16461e-06
-4.08182e-08
3.13836e-06
-2.77078e-08
3.11113e-06
-1.69362e-08
3.08355e-06
-7.57534e-09
3.0565e-06
2.01692e-10
3.03079e-06
6.51321e-09
3.00716e-06
1.13382e-08
2.98599e-06
1.49917e-08
2.96749e-06
1.74885e-08
2.95154e-06
1.9193e-08
2.93796e-06
2.00938e-08
2.92639e-06
2.05463e-08
2.91659e-06
2.04699e-08
2.90823e-06
2.02042e-08
2.90117e-06
1.9618e-08
2.89513e-06
1.90524e-08
2.89007e-06
1.83546e-08
2.8858e-06
1.79085e-08
2.88238e-06
1.7662e-08
2.87978e-06
1.81802e-08
2.8784e-06
2.03486e-08
2.87878e-06
2.59069e-08
2.88195e-06
4.405e-08
1.25328e-07
2.8752e-06
2.62614e-06
-2.48718e-07
2.56422e-06
-2.37798e-07
2.5108e-06
-1.51715e-07
2.46244e-06
-9.03636e-08
2.41871e-06
-4.75969e-08
2.38097e-06
-2.21562e-08
2.34922e-06
-9.0379e-09
2.32298e-06
-1.48099e-09
2.30205e-06
4.02747e-09
2.28607e-06
8.38253e-09
2.27457e-06
1.17454e-08
2.26677e-06
1.42828e-08
2.26204e-06
1.61149e-08
2.25964e-06
1.73602e-08
2.2591e-06
1.80717e-08
2.2599e-06
1.83593e-08
2.26176e-06
1.82807e-08
2.26432e-06
1.79529e-08
2.26742e-06
1.74143e-08
2.27081e-06
1.67692e-08
2.27445e-06
1.60344e-08
2.27815e-06
1.53079e-08
2.28196e-06
1.46045e-08
2.28577e-06
1.40472e-08
2.28976e-06
1.37361e-08
2.29397e-06
1.39134e-08
2.2991e-06
1.53514e-08
2.30594e-06
1.89055e-08
2.31837e-06
3.15374e-08
1.23574e-07
2.32014e-06
1.66068e-06
-2.60654e-07
1.60433e-06
-1.81459e-07
1.54509e-06
-9.24761e-08
1.4945e-06
-3.97577e-08
1.45855e-06
-1.16288e-08
1.43697e-06
-5.65862e-10
1.42579e-06
2.18589e-09
1.42148e-06
2.8065e-09
1.42199e-06
3.57258e-09
1.42596e-06
4.38743e-09
1.43255e-06
5.21163e-09
1.44101e-06
5.78364e-09
1.45088e-06
6.31072e-09
1.46163e-06
6.56767e-09
1.47296e-06
6.80626e-09
1.48449e-06
6.78058e-09
1.49606e-06
6.79167e-09
1.50738e-06
6.56836e-09
1.51843e-06
6.44505e-09
1.52902e-06
6.1155e-09
1.5392e-06
5.94288e-09
1.54884e-06
5.58909e-09
1.55809e-06
5.4516e-09
1.56687e-06
5.17604e-09
1.57548e-06
5.23332e-09
1.584e-06
5.30647e-09
1.59344e-06
6.12683e-09
1.60468e-06
7.39645e-09
1.6261e-06
9.9695e-09
1.02469e-07
1.64724e-06
7.96926e-07
6.15467e-07
5.22991e-07
4.83234e-07
4.71605e-07
4.7104e-07
4.73225e-07
4.76033e-07
4.79605e-07
4.83993e-07
4.89204e-07
4.94989e-07
5.01299e-07
5.07867e-07
5.14673e-07
5.21455e-07
5.28245e-07
5.34815e-07
5.41259e-07
5.47376e-07
5.53318e-07
5.58908e-07
5.64358e-07
5.69536e-07
5.74768e-07
5.80078e-07
5.862e-07
5.93595e-07
6.03565e-07
7.06034e-07
9.70203e-07
4.49176e-10
9.69716e-07
4.87609e-10
9.69257e-07
4.5901e-10
9.68869e-07
3.87768e-10
9.6856e-07
3.08164e-10
9.68319e-07
2.41569e-10
9.6813e-07
1.88864e-10
9.67985e-07
1.4487e-10
9.67875e-07
1.10052e-10
9.67789e-07
8.57602e-11
9.6772e-07
6.94121e-11
9.67662e-07
5.7782e-11
9.67612e-07
4.96151e-11
9.67568e-07
4.42891e-11
9.67527e-07
4.08497e-11
9.67489e-07
3.84442e-11
9.67452e-07
3.66228e-11
9.67417e-07
3.51498e-11
9.67383e-07
3.40124e-11
9.6735e-07
3.32327e-11
9.67317e-07
3.26223e-11
9.67285e-07
3.17097e-11
9.67255e-07
3.0503e-11
9.67224e-07
2.99233e-11
9.67194e-07
3.03707e-11
9.67164e-07
3.03828e-11
9.67135e-07
2.8823e-11
9.67107e-07
2.79638e-11
9.67077e-07
2.96665e-11
9.67046e-07
3.0593e-11
9.67018e-07
2.82995e-11
9.6699e-07
2.79306e-11
9.66959e-07
3.16032e-11
9.66927e-07
3.19588e-11
9.66898e-07
2.90122e-11
9.66866e-07
3.24201e-11
9.66829e-07
3.6747e-11
9.66795e-07
3.35838e-11
9.66759e-07
3.59333e-11
9.66714e-07
4.55741e-11
9.66669e-07
4.4309e-11
9.66622e-07
4.75692e-11
9.6655e-07
7.18151e-11
9.66394e-07
1.56103e-10
9.65895e-07
4.98813e-10
9.64228e-07
1.66708e-09
9.59872e-07
4.35567e-09
9.51269e-07
8.60396e-09
9.37611e-07
1.36578e-08
9.19132e-07
1.8479e-08
8.96782e-07
2.23497e-08
8.71683e-07
2.50992e-08
8.44789e-07
2.6894e-08
8.16817e-07
2.79716e-08
7.88295e-07
2.85225e-08
7.59615e-07
2.86798e-08
7.31076e-07
2.85388e-08
7.02905e-07
2.81715e-08
6.75271e-07
2.76338e-08
6.48301e-07
2.697e-08
6.22086e-07
2.62148e-08
5.9669e-07
2.53957e-08
5.72156e-07
2.45345e-08
5.48508e-07
2.36483e-08
5.25757e-07
2.27507e-08
5.03905e-07
2.18522e-08
4.82944e-07
2.09609e-08
4.6286e-07
2.00833e-08
4.43636e-07
1.92241e-08
4.25249e-07
1.8387e-08
4.07675e-07
1.75746e-08
3.90886e-07
1.67887e-08
3.74855e-07
1.60308e-08
3.59554e-07
1.53013e-08
3.44953e-07
1.46008e-08
3.31024e-07
1.39292e-08
3.17738e-07
1.32863e-08
3.05066e-07
1.26715e-08
2.92982e-07
1.20843e-08
2.81458e-07
1.1524e-08
2.70468e-07
1.09897e-08
2.59988e-07
1.04806e-08
2.49992e-07
9.99574e-09
2.40458e-07
9.53416e-09
2.31363e-07
9.09491e-09
2.22686e-07
8.67704e-09
2.14406e-07
8.27961e-09
2.06504e-07
7.90169e-09
1.98962e-07
7.54237e-09
1.91761e-07
7.20076e-09
1.84885e-07
6.87601e-09
1.78318e-07
6.56728e-09
1.72044e-07
6.2738e-09
1.66049e-07
5.99478e-09
1.6032e-07
5.72951e-09
1.54843e-07
5.47728e-09
1.49605e-07
5.23742e-09
1.44596e-07
5.00929e-09
1.39804e-07
4.7923e-09
1.35218e-07
4.58587e-09
1.30828e-07
4.38944e-09
1.26626e-07
4.2025e-09
1.22601e-07
4.02456e-09
1.18746e-07
3.85514e-09
1.15052e-07
3.69382e-09
1.11512e-07
3.54015e-09
1.08118e-07
3.39376e-09
1.04864e-07
3.25426e-09
1.01743e-07
3.1213e-09
9.87483e-08
2.99454e-09
9.58746e-08
2.87366e-09
9.31162e-08
2.75836e-09
9.04679e-08
2.64835e-09
8.79245e-08
2.54336e-09
8.54814e-08
2.44314e-09
8.31339e-08
2.34744e-09
8.08779e-08
2.25605e-09
7.87092e-08
2.16872e-09
7.66239e-08
2.08527e-09
7.46184e-08
2.0055e-09
7.26892e-08
1.92921e-09
7.0833e-08
1.85623e-09
6.90466e-08
1.78638e-09
6.73271e-08
1.7195e-09
6.56717e-08
1.65543e-09
6.40777e-08
1.59398e-09
6.25426e-08
1.53506e-09
6.10643e-08
1.47835e-09
5.96403e-08
1.42398e-09
5.82692e-08
1.37113e-09
5.69484e-08
1.32079e-09
5.56781e-08
1.27027e-09
5.44541e-08
1.22401e-09
5.32821e-08
1.17198e-09
5.21496e-08
1.13255e-09
5.10825e-08
1.06701e-09
5.00338e-08
1.04877e-09
4.9104e-08
9.29752e-10
4.81184e-08
9.85609e-10
6.1676e-10
2.54983e-06
1.68361e-09
2.5485e-06
1.82036e-09
2.54726e-06
1.69609e-09
2.54624e-06
1.41304e-09
2.54543e-06
1.11114e-09
2.54481e-06
8.68065e-10
2.54432e-06
6.77405e-10
2.54394e-06
5.17758e-10
2.54366e-06
3.93266e-10
2.54344e-06
3.07983e-10
2.54326e-06
2.50556e-10
2.54311e-06
2.09528e-10
2.54297e-06
1.80989e-10
2.54286e-06
1.6254e-10
2.54275e-06
1.50598e-10
2.54264e-06
1.42241e-10
2.54254e-06
1.35844e-10
2.54245e-06
1.30637e-10
2.54236e-06
1.26617e-10
2.54226e-06
1.24004e-10
2.54217e-06
1.21984e-10
2.54209e-06
1.1863e-10
2.542e-06
1.14115e-10
2.54192e-06
1.12249e-10
2.54184e-06
1.14533e-10
2.54175e-06
1.14591e-10
2.54167e-06
1.08264e-10
2.5416e-06
1.05014e-10
2.54151e-06
1.12215e-10
2.54143e-06
1.15884e-10
2.54135e-06
1.07137e-10
2.54127e-06
1.06271e-10
2.54118e-06
1.19761e-10
2.5411e-06
1.19165e-10
2.54102e-06
1.08729e-10
2.54092e-06
1.25683e-10
2.54082e-06
1.41836e-10
2.54073e-06
1.25679e-10
2.54062e-06
1.3788e-10
2.54046e-06
2.0648e-10
2.5401e-06
4.03206e-10
2.53905e-06
1.10597e-09
2.53609e-06
3.02279e-09
2.52916e-06
7.08943e-09
2.51593e-06
1.37338e-08
2.49513e-06
2.24667e-08
2.46696e-06
3.25272e-08
2.43223e-06
4.33297e-08
2.39143e-06
5.4456e-08
2.34452e-06
6.53913e-08
2.29146e-06
7.54099e-08
2.23274e-06
8.38221e-08
2.16936e-06
9.0268e-08
2.10258e-06
9.47566e-08
2.03358e-06
9.75182e-08
1.96341e-06
9.88518e-08
1.89291e-06
9.90424e-08
1.82274e-06
9.83345e-08
1.75345e-06
9.69302e-08
1.68542e-06
9.49945e-08
1.61898e-06
9.26612e-08
1.55433e-06
9.00379e-08
1.49166e-06
8.72112e-08
1.43105e-06
8.42504e-08
1.37259e-06
8.12107e-08
1.31631e-06
7.81358e-08
1.26221e-06
7.50603e-08
1.21028e-06
7.20112e-08
1.1605e-06
6.90094e-08
1.11281e-06
6.60712e-08
1.06718e-06
6.32084e-08
1.02354e-06
6.04302e-08
9.81827e-07
5.77426e-08
9.41978e-07
5.515e-08
9.03924e-07
5.26548e-08
8.67595e-07
5.02581e-08
8.32922e-07
4.79599e-08
7.99834e-07
4.57593e-08
7.68263e-07
4.36549e-08
7.38143e-07
4.16444e-08
7.09407e-07
3.97255e-08
6.81993e-07
3.78953e-08
6.55837e-07
3.61509e-08
6.30882e-07
3.44892e-08
6.0707e-07
3.29068e-08
5.84347e-07
3.14006e-08
5.62659e-07
2.99674e-08
5.41957e-07
2.86038e-08
5.22193e-07
2.73068e-08
5.0332e-07
2.60733e-08
4.85296e-07
2.49003e-08
4.68078e-07
2.37848e-08
4.51628e-07
2.2724e-08
4.35907e-07
2.17154e-08
4.20881e-07
2.07561e-08
4.06514e-07
1.98438e-08
3.92776e-07
1.89761e-08
3.79634e-07
1.81507e-08
3.67061e-07
1.73655e-08
3.55029e-07
1.66183e-08
3.43511e-07
1.59073e-08
3.32483e-07
1.52305e-08
3.21921e-07
1.45862e-08
3.11803e-07
1.39727e-08
3.02109e-07
1.33885e-08
2.92817e-07
1.2832e-08
2.83909e-07
1.23017e-08
2.75367e-07
1.17964e-08
2.67174e-07
1.13147e-08
2.59313e-07
1.08555e-08
2.51769e-07
1.04175e-08
2.44527e-07
9.99971e-09
2.37575e-07
9.60109e-09
2.30897e-07
9.22064e-09
2.24483e-07
8.85746e-09
2.1832e-07
8.51065e-09
2.12397e-07
8.1794e-09
2.06702e-07
7.86292e-09
2.01227e-07
7.56046e-09
1.95961e-07
7.27131e-09
1.90896e-07
6.99479e-09
1.86022e-07
6.73024e-09
1.81331e-07
6.47706e-09
1.76816e-07
6.23461e-09
1.72469e-07
6.00236e-09
1.68283e-07
5.77959e-09
1.64252e-07
5.566e-09
1.6037e-07
5.36042e-09
1.56631e-07
5.16328e-09
1.53031e-07
4.97171e-09
1.49562e-07
4.78919e-09
1.46226e-07
4.60607e-09
1.43012e-07
4.43828e-09
1.39934e-07
4.24973e-09
1.3696e-07
4.10657e-09
1.34158e-07
3.86931e-09
1.31404e-07
3.80248e-09
1.28962e-07
3.37225e-09
1.26375e-07
3.57245e-09
2.23864e-09
3.67641e-06
3.62152e-09
3.67434e-06
3.88908e-09
3.67248e-06
3.56057e-09
3.67099e-06
2.89893e-09
3.66986e-06
2.24321e-09
3.66898e-06
1.74479e-09
3.6683e-06
1.35656e-09
3.66779e-06
1.03036e-09
3.6674e-06
7.82825e-10
3.66709e-06
6.17497e-10
3.66684e-06
5.05583e-10
3.66662e-06
4.25334e-10
3.66643e-06
3.70309e-10
3.66626e-06
3.35104e-10
3.6661e-06
3.12351e-10
3.66594e-06
2.96446e-10
3.66579e-06
2.84114e-10
3.66565e-06
2.73859e-10
3.66551e-06
2.66041e-10
3.66537e-06
2.61515e-10
3.66524e-06
2.58153e-10
3.6651e-06
2.51131e-10
3.66498e-06
2.41088e-10
3.66485e-06
2.37679e-10
3.66472e-06
2.44218e-10
3.66459e-06
2.44824e-10
3.66447e-06
2.30587e-10
3.66435e-06
2.24198e-10
3.66422e-06
2.40552e-10
3.66409e-06
2.4576e-10
3.66397e-06
2.25617e-10
3.66385e-06
2.3023e-10
3.6637e-06
2.64621e-10
3.66357e-06
2.5679e-10
3.66345e-06
2.31045e-10
3.66328e-06
2.91589e-10
3.66296e-06
4.57357e-10
3.66213e-06
9.55399e-10
3.65986e-06
2.40684e-09
3.65436e-06
5.70913e-09
3.64296e-06
1.18059e-08
3.6232e-06
2.08656e-08
3.59412e-06
3.20995e-08
3.55665e-06
4.4563e-08
3.51265e-06
5.77309e-08
3.46367e-06
7.14511e-08
3.41054e-06
8.56527e-08
3.35363e-06
1.00241e-07
3.29301e-06
1.15078e-07
3.22846e-06
1.29938e-07
3.15951e-06
1.4436e-07
3.08571e-06
1.57625e-07
3.00699e-06
1.68987e-07
2.9238e-06
1.77948e-07
2.83696e-06
1.84354e-07
2.74749e-06
1.88326e-07
2.65639e-06
1.9014e-07
2.5646e-06
1.90124e-07
2.47293e-06
1.88606e-07
2.38204e-06
1.85883e-07
2.29249e-06
1.82214e-07
2.2047e-06
1.77822e-07
2.11902e-06
1.7289e-07
2.0357e-06
1.67573e-07
1.95492e-06
1.61994e-07
1.8768e-06
1.56256e-07
1.80142e-06
1.50441e-07
1.72881e-06
1.44613e-07
1.659e-06
1.38826e-07
1.59195e-06
1.33119e-07
1.52763e-06
1.27525e-07
1.466e-06
1.22068e-07
1.40697e-06
1.16765e-07
1.35049e-06
1.1163e-07
1.29648e-06
1.06671e-07
1.24484e-06
1.01895e-07
1.1955e-06
9.73027e-08
1.14836e-06
9.28961e-08
1.10334e-06
8.86737e-08
1.06035e-06
8.46329e-08
1.01931e-06
8.07701e-08
9.80122e-07
7.70809e-08
9.42713e-07
7.35603e-08
9.06999e-07
7.02027e-08
8.72904e-07
6.70025e-08
8.40351e-07
6.39537e-08
8.09268e-07
6.10501e-08
7.79586e-07
5.82859e-08
7.51238e-07
5.56548e-08
7.2416e-07
5.3151e-08
6.98292e-07
5.07688e-08
6.73574e-07
4.85023e-08
6.49952e-07
4.63461e-08
6.27373e-07
4.42948e-08
6.05785e-07
4.23434e-08
5.85142e-07
4.0487e-08
5.65398e-07
3.87207e-08
5.46508e-07
3.704e-08
5.28433e-07
3.54407e-08
5.11133e-07
3.39187e-08
4.9457e-07
3.24698e-08
4.7871e-07
3.10906e-08
4.63519e-07
2.97773e-08
4.48965e-07
2.85266e-08
4.35018e-07
2.73353e-08
4.2165e-07
2.62004e-08
4.08833e-07
2.51189e-08
3.96541e-07
2.40881e-08
3.8475e-07
2.31054e-08
3.73437e-07
2.21685e-08
3.6258e-07
2.12748e-08
3.52157e-07
2.04223e-08
3.4215e-07
1.96088e-08
3.32538e-07
1.88323e-08
3.23305e-07
1.8091e-08
3.14432e-07
1.73831e-08
3.05905e-07
1.67069e-08
2.97707e-07
1.60608e-08
2.89824e-07
1.54433e-08
2.82242e-07
1.48529e-08
2.74949e-07
1.42883e-08
2.67931e-07
1.37481e-08
2.61177e-07
1.32311e-08
2.54676e-07
1.2736e-08
2.48416e-07
1.22618e-08
2.42389e-07
1.18068e-08
2.36584e-07
1.13706e-08
2.30994e-07
1.09508e-08
2.25609e-07
1.05482e-08
2.20424e-07
1.01569e-08
2.15429e-07
9.78408e-09
2.10625e-07
9.41006e-09
2.05996e-07
9.06732e-09
2.01563e-07
8.68221e-09
1.9728e-07
8.38973e-09
1.93244e-07
7.90519e-09
1.89278e-07
7.76843e-09
1.85761e-07
6.88997e-09
1.82035e-07
7.29815e-09
4.57448e-09
4.44671e-06
6.24702e-09
4.44395e-06
6.64745e-09
4.44157e-06
5.94172e-09
4.43978e-06
4.69136e-09
4.43846e-06
3.56181e-09
4.43744e-06
2.75991e-09
4.43667e-06
2.134e-09
4.43609e-06
1.60825e-09
4.43565e-06
1.22502e-09
4.43529e-06
9.75703e-10
4.43499e-06
8.04978e-10
4.43473e-06
6.82573e-10
4.4345e-06
6.00254e-10
4.43429e-06
5.48121e-10
4.43409e-06
5.14498e-10
4.43389e-06
4.90985e-10
4.4337e-06
4.72261e-10
4.43352e-06
4.56015e-10
4.43334e-06
4.43742e-10
4.43317e-06
4.37741e-10
4.43299e-06
4.33844e-10
4.43282e-06
4.22366e-10
4.43265e-06
4.04935e-10
4.43249e-06
4.00446e-10
4.43232e-06
4.13568e-10
4.43215e-06
4.13055e-10
4.43199e-06
3.86943e-10
4.43184e-06
3.82344e-10
4.43166e-06
4.19257e-10
4.43148e-06
4.23791e-10
4.43132e-06
3.82393e-10
4.43114e-06
4.15044e-10
4.43081e-06
5.93935e-10
4.43003e-06
1.04279e-09
4.42796e-06
2.29363e-09
4.42308e-06
5.17389e-09
4.41286e-06
1.06765e-08
4.39438e-06
1.94384e-08
4.36578e-06
3.10078e-08
4.32722e-06
4.42679e-08
4.28071e-06
5.83132e-08
4.22871e-06
7.28708e-08
4.1728e-06
8.80036e-08
4.11372e-06
1.03642e-07
4.05183e-06
1.1962e-07
3.98749e-06
1.35796e-07
3.92104e-06
1.52102e-07
3.85271e-06
1.6857e-07
3.78253e-06
1.85262e-07
3.71028e-06
2.02189e-07
3.63547e-06
2.19169e-07
3.55741e-06
2.35684e-07
3.47546e-06
2.50937e-07
3.38929e-06
2.6411e-07
3.29905e-06
2.74603e-07
3.20522e-06
2.82149e-07
3.10859e-06
2.86772e-07
3.01002e-06
2.88696e-07
2.91038e-06
2.88246e-07
2.81048e-06
2.8578e-07
2.71104e-06
2.81653e-07
2.61267e-06
2.76193e-07
2.51587e-06
2.69687e-07
2.42106e-06
2.62388e-07
2.32855e-06
2.54508e-07
2.23858e-06
2.46225e-07
2.15133e-06
2.37686e-07
2.06693e-06
2.29014e-07
1.98545e-06
2.20304e-07
1.90693e-06
2.11638e-07
1.83138e-06
2.03076e-07
1.75878e-06
1.9467e-07
1.68909e-06
1.86456e-07
1.62226e-06
1.78464e-07
1.55821e-06
1.70715e-07
1.49689e-06
1.63223e-07
1.43819e-06
1.55999e-07
1.38204e-06
1.49047e-07
1.32834e-06
1.42369e-07
1.27701e-06
1.35966e-07
1.22795e-06
1.29832e-07
1.18106e-06
1.23965e-07
1.13627e-06
1.18357e-07
1.09347e-06
1.13001e-07
1.05258e-06
1.07891e-07
1.01352e-06
1.03017e-07
9.76199e-07
9.83702e-08
9.40542e-07
9.39427e-08
9.06471e-07
8.97254e-08
8.73913e-07
8.57091e-08
8.42797e-07
8.18852e-08
8.13054e-07
7.82451e-08
7.8462e-07
7.47802e-08
7.57432e-07
7.14823e-08
7.31432e-07
6.83436e-08
7.06563e-07
6.53563e-08
6.8277e-07
6.25131e-08
6.60003e-07
5.98068e-08
6.38213e-07
5.72308e-08
6.17354e-07
5.47783e-08
5.9738e-07
5.24434e-08
5.78251e-07
5.02199e-08
5.59926e-07
4.81024e-08
5.42367e-07
4.60854e-08
5.25539e-07
4.41638e-08
5.09406e-07
4.23327e-08
4.93937e-07
4.05877e-08
4.79101e-07
3.89242e-08
4.64869e-07
3.73382e-08
4.51211e-07
3.58256e-08
4.38103e-07
3.43829e-08
4.25519e-07
3.30064e-08
4.13435e-07
3.16928e-08
4.01829e-07
3.04388e-08
3.90678e-07
2.92416e-08
3.79963e-07
2.80981e-08
3.69664e-07
2.70059e-08
3.59763e-07
2.59622e-08
3.50241e-07
2.49646e-08
3.41083e-07
2.40108e-08
3.32273e-07
2.30985e-08
3.23796e-07
2.22257e-08
3.15636e-07
2.13903e-08
3.07782e-07
2.05903e-08
3.0022e-07
1.98238e-08
2.92938e-07
1.90886e-08
2.85925e-07
1.83836e-08
2.79171e-07
1.77051e-08
2.72665e-07
1.70543e-08
2.664e-07
1.64219e-08
2.60365e-07
1.58193e-08
2.5456e-07
1.52147e-08
2.48967e-07
1.46607e-08
2.43611e-07
1.40381e-08
2.38435e-07
1.35654e-08
2.33558e-07
1.27819e-08
2.28766e-07
1.2561e-08
2.24515e-07
1.11404e-08
2.20012e-07
1.1801e-08
7.39617e-09
4.93721e-06
9.57653e-09
4.93379e-06
1.00742e-08
4.93099e-06
8.7322e-09
4.92905e-06
6.6388e-09
4.92766e-06
4.94263e-09
4.9266e-06
3.82071e-09
4.92581e-06
2.92968e-09
4.92523e-06
2.18908e-09
4.92478e-06
1.67691e-09
4.9244e-06
1.35017e-09
4.92408e-06
1.12244e-09
4.92381e-06
9.60234e-10
4.92355e-06
8.5327e-10
4.92331e-06
7.86051e-10
4.92308e-06
7.43173e-10
4.92286e-06
7.13489e-10
4.92265e-06
6.89036e-10
4.92244e-06
6.66714e-10
4.92223e-06
6.50085e-10
4.92202e-06
6.43523e-10
4.92182e-06
6.3942e-10
4.92162e-06
6.213e-10
4.92143e-06
5.94903e-10
4.92123e-06
5.94652e-10
4.92102e-06
6.23221e-10
4.92081e-06
6.21157e-10
4.92062e-06
5.79711e-10
4.9204e-06
6.07722e-10
4.92e-06
8.10023e-10
4.91912e-06
1.30917e-09
4.91693e-06
2.56827e-09
4.91198e-06
5.36668e-09
4.90195e-06
1.06228e-08
4.88387e-06
1.91291e-08
4.85541e-06
3.07542e-08
4.81617e-06
4.44143e-08
4.76789e-06
5.89548e-08
4.7135e-06
7.38246e-08
4.65538e-06
8.91275e-08
4.59464e-06
1.05008e-07
4.53166e-06
1.21296e-07
4.46674e-06
1.3779e-07
4.40032e-06
1.54425e-07
4.3328e-06
1.71164e-07
4.26442e-06
1.87997e-07
4.19529e-06
2.04924e-07
4.12546e-06
2.21938e-07
4.05491e-06
2.39114e-07
3.98358e-06
2.56589e-07
3.91126e-06
2.74509e-07
3.83754e-06
2.92893e-07
3.76177e-06
3.11451e-07
3.68319e-06
3.29518e-07
3.60112e-06
3.46183e-07
3.51517e-06
3.60552e-07
3.42535e-06
3.7197e-07
3.33202e-06
3.80107e-07
3.23578e-06
3.84936e-07
3.13738e-06
3.86642e-07
3.03762e-06
3.85544e-07
2.93725e-06
3.82016e-07
2.837e-06
3.76449e-07
2.73747e-06
3.69215e-07
2.6392e-06
3.60655e-07
2.54264e-06
3.51071e-07
2.44814e-06
3.40726e-07
2.35598e-06
3.29844e-07
2.26638e-06
3.18611e-07
2.1795e-06
3.07184e-07
2.09545e-06
2.95692e-07
2.01429e-06
2.84238e-07
1.93605e-06
2.72908e-07
1.86074e-06
2.61768e-07
1.78833e-06
2.50869e-07
1.71879e-06
2.40253e-07
1.65207e-06
2.29947e-07
1.58809e-06
2.19974e-07
1.52679e-06
2.10348e-07
1.46809e-06
2.01076e-07
1.41189e-06
1.92163e-07
1.35811e-06
1.83608e-07
1.30667e-06
1.75408e-07
1.25747e-06
1.67558e-07
1.21042e-06
1.6005e-07
1.16544e-06
1.52875e-07
1.12243e-06
1.46024e-07
1.08131e-06
1.39486e-07
1.042e-06
1.3325e-07
1.00443e-06
1.27305e-07
9.68496e-07
1.21639e-07
9.34141e-07
1.1624e-07
9.01289e-07
1.11097e-07
8.69871e-07
1.06198e-07
8.39819e-07
1.01534e-07
8.11071e-07
9.7092e-08
7.83565e-07
9.28626e-08
7.57242e-07
8.88355e-08
7.32048e-07
8.50009e-08
7.0793e-07
8.13494e-08
6.84836e-07
7.78721e-08
6.62719e-07
7.45604e-08
6.41533e-07
7.14061e-08
6.21234e-07
6.84012e-08
6.01781e-07
6.55383e-08
5.83134e-07
6.28103e-08
5.65257e-07
6.02103e-08
5.48113e-07
5.7732e-08
5.31668e-07
5.53691e-08
5.1589e-07
5.31159e-08
5.00749e-07
5.09669e-08
4.86215e-07
4.89167e-08
4.72261e-07
4.69604e-08
4.5886e-07
4.50933e-08
4.45988e-07
4.33108e-08
4.33621e-07
4.16087e-08
4.21736e-07
3.9983e-08
4.10312e-07
3.84299e-08
3.99329e-07
3.69457e-08
3.88766e-07
3.5527e-08
3.78606e-07
3.41705e-08
3.68832e-07
3.28731e-08
3.59426e-07
3.16316e-08
3.50373e-07
3.04433e-08
3.41658e-07
2.93052e-08
3.33267e-07
2.82148e-08
3.25187e-07
2.71689e-08
3.17405e-07
2.61659e-08
3.09909e-07
2.52004e-08
3.02689e-07
2.42745e-08
2.95736e-07
2.33746e-08
2.89038e-07
2.25172e-08
2.82596e-07
2.16568e-08
2.76388e-07
2.08685e-08
2.70444e-07
1.99824e-08
2.647e-07
1.93098e-08
2.59287e-07
1.81945e-08
2.53968e-07
1.78807e-08
2.4925e-07
1.58576e-08
2.44252e-07
1.67998e-08
1.0527e-08
5.21019e-06
1.36511e-08
5.20611e-06
1.41612e-08
5.20302e-06
1.18165e-08
5.20106e-06
8.59595e-09
5.19972e-06
6.29007e-09
5.19868e-06
4.85727e-09
5.19793e-06
3.68108e-09
5.19739e-06
2.73143e-09
5.19695e-06
2.11341e-09
5.19658e-06
1.72091e-09
5.19626e-06
1.44201e-09
5.19597e-06
1.24657e-09
5.1957e-06
1.1199e-09
5.19545e-06
1.04065e-09
5.1952e-06
9.90808e-10
5.19496e-06
9.56335e-10
5.19472e-06
9.26386e-10