/*--------------------------------*- C++ -*----------------------------------*\
| =========                 |                                                 |
| \\      /  F ield         | OpenFOAM: The Open Source CFD Toolbox           |
|  \\    /   O peration     | Version:  4.x                                   |
|   \\  /    A nd           | Web:      www.OpenFOAM.org                      |
|    \\/     M anipulation  |                                                 |
\*---------------------------------------------------------------------------*/
FoamFile
{
    version     2.0;
    format      ascii;
    class       volVectorField;
    location    "1";
    object      U;
}
// * * * * * * * * * * * * * * * * * * * * * * * * * * * * * * * * * * * * * //

dimensions      [0 1 -1 0 0 0 0];

internalField   nonuniform List<vector> 
11990
(
(5.12504 -0.00363162 8.1881e-18)
(5.15071 -0.00393372 1.49647e-17)
(5.17877 -0.00370094 1.84378e-17)
(5.20093 -0.00300551 1.10998e-17)
(5.21695 -0.00237014 7.52288e-17)
(5.22947 -0.00194906 -8.80517e-17)
(5.2402 -0.00163907 4.00422e-16)
(5.24949 -0.00139989 1.45307e-15)
(5.25749 -0.00123375 1.86582e-15)
(5.26454 -0.00111823 1.94976e-15)
(5.27099 -0.00103002 1.91833e-15)
(5.27699 -0.000962073 1.8695e-15)
(5.28262 -0.00091232 1.81133e-15)
(5.28797 -0.000877324 1.74384e-15)
(5.29312 -0.000853872 1.70577e-15)
(5.29815 -0.000840131 1.56219e-15)
(5.3031 -0.000834344 1.89405e-15)
(5.30802 -0.000834804 1.8772e-15)
(5.31294 -0.000839573 1.83541e-15)
(5.31787 -0.000846914 1.82542e-15)
(5.32284 -0.000854515 1.79635e-15)
(5.32783 -0.000859527 1.76513e-15)
(5.33281 -0.000857129 1.73034e-15)
(5.33773 -0.000839688 1.71694e-15)
(5.34247 -0.000794015 1.69035e-15)
(5.34682 -0.000699372 1.63333e-15)
(5.35046 -0.00052741 1.6004e-15)
(5.35285 -0.00024816 1.56894e-15)
(5.35344 0.00013889 1.53874e-15)
(5.35149 0.000563039 1.50966e-15)
(5.12873 -0.00818233 -4.0828e-16)
(5.15453 -0.00893424 -6.25696e-16)
(5.18288 -0.00837619 -8.19002e-16)
(5.20515 -0.00678956 -8.72775e-16)
(5.22108 -0.0053724 -8.50083e-16)
(5.23349 -0.0044301 -8.26871e-16)
(5.24415 -0.00372917 -8.13478e-16)
(5.25339 -0.00319104 -7.65518e-16)
(5.26134 -0.00281796 -7.69473e-16)
(5.26837 -0.00255626 -8.37014e-16)
(5.27479 -0.00235515 -8.03033e-16)
(5.28077 -0.00219986 -7.98678e-16)
(5.28638 -0.00208579 -7.81574e-16)
(5.29171 -0.00200494 -7.64254e-16)
(5.29684 -0.00195048 -7.4887e-16)
(5.30185 -0.00191808 -7.34977e-16)
(5.30679 -0.00190403 -7.26681e-16)
(5.3117 -0.00190419 -6.99533e-16)
(5.3166 -0.00191451 -7.50831e-16)
(5.32153 -0.00193076 -6.87692e-16)
(5.32649 -0.00194814 -6.91551e-16)
(5.33147 -0.00195993 -6.80758e-16)
(5.33645 -0.00195588 -6.73642e-16)
(5.34137 -0.0019186 -6.73267e-16)
(5.34613 -0.00181907 -6.69662e-16)
(5.35052 -0.00160986 -6.56193e-16)
(5.35421 -0.00122597 -6.44425e-16)
(5.35666 -0.00059423 -6.3183e-16)
(5.35729 0.000291859 -6.16813e-16)
(5.3553 0.00127857 -6.00667e-16)
(5.13363 -0.0127865 -3.69318e-17)
(5.15976 -0.0141065 1.07832e-16)
(5.1887 -0.0131007 2.12165e-16)
(5.21116 -0.010525 2.1566e-16)
(5.22691 -0.00831644 2.35534e-16)
(5.23912 -0.00684766 2.63473e-16)
(5.24966 -0.00574779 2.53238e-16)
(5.2588 -0.00491672 3.70672e-16)
(5.26667 -0.00434659 3.72473e-16)
(5.27363 -0.00394424 3.96073e-16)
(5.28001 -0.00363391 4.92903e-16)
(5.28595 -0.00339501 4.86302e-16)
(5.29153 -0.00321979 4.70766e-16)
(5.29683 -0.00309564 4.50307e-16)
(5.30194 -0.00301229 4.27264e-16)
(5.30693 -0.00296315 4.03413e-16)
(5.31184 -0.00294239 3.84434e-16)
(5.31673 -0.00294358 3.48564e-16)
(5.32162 -0.00296045 3.47893e-16)
(5.32653 -0.00298657 3.94434e-16)
(5.33147 -0.0030146 3.89542e-16)
(5.33645 -0.00303452 3.82711e-16)
(5.34143 -0.00303089 3.67055e-16)
(5.34637 -0.00297766 3.51035e-16)
(5.35116 -0.00283055 3.41478e-16)
(5.35561 -0.00251588 3.41215e-16)
(5.35941 -0.00192876 3.56208e-16)
(5.362 -0.000942571 3.58834e-16)
(5.36273 0.000470551 3.62258e-16)
(5.36064 0.00209026 3.63615e-16)
(5.13735 -0.0170517 -2.10582e-17)
(5.16402 -0.0191238 1.12138e-16)
(5.19378 -0.0175411 1.43217e-16)
(5.21645 -0.0139415 5.07851e-16)
(5.23191 -0.0110073 5.5436e-16)
(5.24385 -0.00905032 5.73055e-16)
(5.25422 -0.00757722 4.74337e-16)
(5.26321 -0.0064888 4.31463e-16)
(5.27095 -0.00575014 4.27962e-16)
(5.27783 -0.0052232 3.02946e-16)
(5.28415 -0.0048145 2.62052e-16)
(5.29004 -0.00450057 2.70662e-16)
(5.29556 -0.0042703 2.23895e-16)
(5.30082 -0.00410685 2.32542e-16)
(5.30589 -0.00399751 2.92152e-16)
(5.31084 -0.00393365 2.64876e-16)
(5.31572 -0.00390762 2.91563e-16)
(5.32058 -0.00391075 2.71795e-16)
(5.32544 -0.00393496 2.58438e-16)
(5.33033 -0.00397168 2.58547e-16)
(5.33525 -0.00401163 2.58488e-16)
(5.34021 -0.00404188 2.59241e-16)
(5.34519 -0.00404312 2.59998e-16)
(5.35013 -0.0039822 2.59788e-16)
(5.35497 -0.00380247 2.6077e-16)
(5.3595 -0.00340652 2.66308e-16)
(5.36344 -0.00264953 2.65777e-16)
(5.36621 -0.00133999 2.70194e-16)
(5.3671 0.000595267 2.6766e-16)
(5.3649 0.00291143 2.64017e-16)
(5.13732 -0.0209507 2.69524e-17)
(5.16488 -0.0239639 -1.26026e-16)
(5.1957 -0.0216352 -1.60193e-16)
(5.21855 -0.0169952 -1.62175e-16)
(5.23365 -0.0134124 -1.63511e-16)
(5.24528 -0.0110023 -1.31131e-16)
(5.25545 -0.00918564 -1.85824e-16)
(5.26427 -0.00787971 -3.20233e-16)
(5.27188 -0.0070011 -3.40964e-16)
(5.27867 -0.0063652 -3.12989e-16)
(5.28493 -0.0058691 -2.96159e-16)
(5.29075 -0.00548859 -2.88712e-16)
(5.29623 -0.0052088 -2.70958e-16)
(5.30144 -0.00500933 -3.01781e-16)
(5.30647 -0.00487585 -3.04071e-16)
(5.31138 -0.00479799 -3.01534e-16)
(5.31623 -0.00476639 -2.9945e-16)
(5.32106 -0.00477043 -3.03685e-16)
(5.32589 -0.00480049 -2.8972e-16)
(5.33075 -0.00484625 -2.63302e-16)
(5.33565 -0.0048969 -2.53967e-16)
(5.3406 -0.00493736 -2.49711e-16)
(5.34557 -0.00494557 -2.45967e-16)
(5.35054 -0.00488324 -2.43522e-16)
(5.35542 -0.00468414 -2.41619e-16)
(5.36005 -0.00423097 -2.36585e-16)
(5.36417 -0.00333953 -2.32903e-16)
(5.36717 -0.00174312 -2.294e-16)
(5.36829 0.000707524 -2.27084e-16)
(5.36597 0.00380616 -2.06384e-16)
(5.13317 -0.0246548 0)
(5.16201 -0.0286708 1.43036e-18)
(5.19408 -0.0253629 -1.69309e-18)
(5.21706 -0.0196834 -5.52179e-18)
(5.23171 -0.0155231 -8.64246e-18)
(5.243 -0.0126859 -1.09131e-17)
(5.25295 -0.0105607 -1.30569e-17)
(5.26158 -0.00908035 -1.58345e-17)
(5.26904 -0.00809043 -1.85616e-17)
(5.27575 -0.00736323 -2.09874e-17)
(5.28193 -0.00679426 -2.30598e-17)
(5.2877 -0.00635921 -2.59888e-17)
(5.29312 -0.00603937 -2.88891e-17)
(5.29828 -0.00581147 -3.15757e-17)
(5.30327 -0.00566034 -3.37189e-17)
(5.30814 -0.00557381 -3.54562e-17)
(5.31295 -0.0055411 -3.74655e-17)
(5.31774 -0.00554949 -3.97922e-17)
(5.32255 -0.00558824 -4.24414e-17)
(5.32738 -0.00564514 -4.49784e-17)
(5.33226 -0.00570853 -4.74592e-17)
(5.33719 -0.00576145 -4.93305e-17)
(5.34216 -0.00578051 -5.41291e-17)
(5.34714 -0.00572386 -5.31541e-17)
(5.35207 -0.00551904 -5.1307e-17)
(5.35681 -0.00503312 -5.38381e-17)
(5.36112 -0.00404502 -5.59363e-17)
(5.36439 -0.00220537 -5.62548e-17)
(5.36582 0.000748325 -7.81284e-17)
(5.36338 0.00473938 -7.79924e-17)
(5.12474 -0.0283954 -4.31922e-18)
(5.15531 -0.0333767 2.96393e-17)
(5.18883 -0.0288329 -1.22271e-16)
(5.21185 -0.0221377 -1.49976e-16)
(5.22602 -0.0174472 -1.38749e-16)
(5.23698 -0.0141924 -1.27578e-16)
(5.24668 -0.0117912 -1.19004e-16)
(5.2551 -0.0101707 -1.12085e-16)
(5.26243 -0.00908622 -1.06169e-16)
(5.26904 -0.00827538 -1.04769e-16)
(5.27516 -0.00763856 -8.92995e-17)
(5.28086 -0.00715123 -1.64264e-16)
(5.28622 -0.00679124 -1.73712e-16)
(5.29132 -0.00653334 -1.33915e-16)
(5.29626 -0.00636226 -8.57984e-17)
(5.30108 -0.00626421 -6.49541e-17)
(5.30585 -0.00622741 -7.75328e-17)
(5.3106 -0.00623729 -8.50303e-17)
(5.31537 -0.0062823 -1.12631e-16)
(5.32017 -0.00634849 -1.21293e-16)
(5.32502 -0.00642354 -1.23056e-16)
(5.32992 -0.00648885 -1.23215e-16)
(5.33487 -0.00652034 -1.22841e-16)
(5.33985 -0.00647397 -1.22102e-16)
(5.34482 -0.00627361 -1.21274e-16)
(5.34965 -0.00577584 -1.20335e-16)
(5.35415 -0.00472615 -1.2004e-16)
(5.35773 -0.00269138 -1.15688e-16)
(5.35954 0.000747266 -1.34613e-16)
(5.357 0.00576577 -1.29796e-16)
(5.1128 -0.0320024 8.41094e-20)
(5.14545 -0.0378707 2.31166e-19)
(5.18041 -0.0318918 5.89435e-19)
(5.20326 -0.0242673 2.14818e-19)
(5.21683 -0.019089 -9.30904e-19)
(5.22736 -0.0154332 -2.82161e-18)
(5.23673 -0.0128049 -4.20871e-18)
(5.24487 -0.0110882 -1.04418e-17)
(5.252 -0.00993547 2.7743e-19)
(5.25846 -0.00906069 -3.35598e-17)
(5.26444 -0.00837326 -5.54187e-17)
(5.27001 -0.00784779 -6.99213e-17)
(5.27525 -0.00745936 -6.5336e-17)
(5.28025 -0.00718114 -1.02767e-16)
(5.28507 -0.00699797 -1.10495e-16)
(5.28979 -0.00689403 -1.10008e-16)
(5.29446 -0.00685681 -1.08098e-16)
(5.29911 -0.00686976 -1.06146e-16)
(5.30378 -0.00692125 -1.04516e-16)
(5.30849 -0.00699582 -1.03234e-16)
(5.31325 -0.00708163 -1.02244e-16)
(5.31807 -0.00715882 -1.01526e-16)
(5.32295 -0.00720403 -1.0102e-16)
(5.32788 -0.00717192 -1.00714e-16)
(5.33282 -0.00698553 -1.00491e-16)
(5.33769 -0.00649561 -1.00277e-16)
(5.34233 -0.00541926 -9.99971e-17)
(5.34618 -0.00324505 -9.9631e-17)
(5.3484 0.000648277 -9.92899e-17)
(5.34573 0.00684536 -9.96701e-17)
(5.09424 -0.0358061 1.63324e-19)
(5.1293 -0.0422979 -4.94009e-19)
(5.16558 -0.0346825 2.44324e-18)
(5.188 -0.0262238 -5.09623e-17)
(5.20083 -0.0205645 -1.95678e-17)
(5.21082 -0.0165062 -3.72776e-17)
(5.21974 -0.0136799 -4.54475e-17)
(5.22751 -0.0118842 -5.33566e-17)
(5.23434 -0.0106661 -5.81072e-17)
(5.24056 -0.00972707 -6.03093e-17)
(5.24631 -0.00898723 -6.05641e-17)
(5.25165 -0.00842009 -5.99115e-17)
(5.25668 -0.00799969 -5.8318e-17)
(5.26145 -0.00769859 -8.23421e-17)
(5.26606 -0.00750244 -4.95701e-17)
(5.27057 -0.00739329 -5.00384e-17)
(5.27502 -0.00735795 -5.42038e-17)
(5.27945 -0.00737705 -5.68353e-17)
(5.28391 -0.00743829 -5.73933e-17)
(5.28839 -0.00752367 -5.72916e-17)
(5.29293 -0.00762168 -5.68958e-17)
(5.29752 -0.0077111 -5.64093e-17)
(5.30216 -0.00777029 -5.55846e-17)
(5.30682 -0.00775386 -5.57476e-17)
(5.31147 -0.00758671 -5.59093e-17)
(5.31604 -0.00711902 -5.38767e-17)
(5.32039 -0.00604566 -5.23338e-17)
(5.32398 -0.00379178 -5.09596e-17)
(5.32601 0.00051701 -4.96984e-17)
(5.32247 0.00805842 -4.90802e-17)
(5.06457 -0.0396876 -2.58694e-18)
(5.10229 -0.046452 1.50458e-17)
(5.1396 -0.0370561 -3.35095e-18)
(5.16117 -0.027884 -7.60656e-17)
(5.17297 -0.0217747 -7.50465e-17)
(5.18212 -0.0173648 -7.04946e-17)
(5.19026 -0.0144061 -7.02972e-17)
(5.19734 -0.0125719 -5.56489e-17)
(5.20355 -0.0113145 -6.8853e-17)
(5.20917 -0.010333 -6.36959e-17)
(5.21433 -0.00955738 -5.89186e-17)
(5.21907 -0.00895882 -4.97935e-17)
(5.22348 -0.00851099 -2.72585e-17)
(5.22762 -0.00818595 -4.28341e-17)
(5.23156 -0.00797118 -3.1283e-17)
(5.23536 -0.00784772 -2.76801e-17)
(5.23904 -0.00780422 7.78071e-18)
(5.24262 -0.00782027 6.44613e-18)
(5.24609 -0.00788488 3.78476e-17)
(5.2494 -0.00797752 4.05937e-17)
(5.25251 -0.00808653 3.80499e-17)
(5.25531 -0.00818675 3.65823e-17)
(5.25769 -0.00825581 3.24389e-17)
(5.25952 -0.00824452 3.20976e-17)
(5.26064 -0.00807752 3.1039e-17)
(5.26088 -0.0076057 3.01065e-17)
(5.26008 -0.00650745 2.92128e-17)
(5.25777 -0.00418225 2.80879e-17)
(5.25352 0.000526761 2.70295e-17)
(5.24266 0.00963547 2.56578e-17)
(5.01538 -0.0436787 1.91504e-19)
(5.05505 -0.0503678 1.36284e-19)
(5.0919 -0.0391055 2.28946e-18)
(5.11109 -0.0292251 -7.73663e-18)
(5.12043 -0.0225989 3.1022e-17)
(5.12734 -0.0178459 4.10307e-17)
(5.13334 -0.0147787 3.06396e-17)
(5.13837 -0.0129043 6.47604e-17)
(5.14261 -0.0115988 7.79811e-17)
(5.14625 -0.0105705 3.69594e-17)
(5.14936 -0.00976053 2.68288e-17)
(5.15194 -0.00913763 2.31112e-17)
(5.15401 -0.00867532 2.05657e-17)
(5.15553 -0.00834169 1.69193e-17)
(5.15645 -0.00812093 1.48428e-17)
(5.15664 -0.00798528 1.40874e-17)
(5.15595 -0.00791714 1.41162e-17)
(5.15417 -0.00788599 1.57247e-17)
(5.15107 -0.00787488 1.45808e-17)
(5.1464 -0.00785362 2.56679e-17)
(5.13993 -0.00780601 2.94246e-17)
(5.13146 -0.0076999 3.0123e-17)
(5.12089 -0.00751426 2.98568e-17)
(5.10821 -0.0072026 2.94188e-17)
(5.09355 -0.00670483 2.85574e-17)
(5.07715 -0.00589746 2.89105e-17)
(5.05944 -0.00448165 3.45001e-17)
(5.04077 -0.00189951 3.20113e-17)
(5.02148 0.00326552 3.06465e-17)
(4.99768 0.0140953 3.00923e-17)
(4.92007 -0.0474667 2.35463e-19)
(4.95733 -0.0537638 1.64115e-18)
(4.98842 -0.0408458 -1.86196e-18)
(5.00028 -0.0303153 -1.52987e-18)
(5.00281 -0.0231147 2.39493e-18)
(5.0036 -0.0180504 2.13104e-18)
(5.00389 -0.0149207 2.19536e-18)
(5.00337 -0.0130208 3.15659e-18)
(5.00196 -0.0116562 7.1994e-18)
(4.99957 -0.010543 1.15774e-17)
(4.99594 -0.00962513 1.64816e-17)
(4.99076 -0.00886355 1.8995e-17)
(4.98369 -0.00822623 3.07539e-17)
(4.9744 -0.00767484 4.72121e-18)
(4.96261 -0.00718942 -6.84896e-18)
(4.94806 -0.00673736 3.93472e-18)
(4.93065 -0.00630133 1.03057e-17)
(4.91044 -0.00585312 1.2807e-17)
(4.88768 -0.00538696 1.97512e-17)
(4.86279 -0.00488846 1.1844e-17)
(4.83636 -0.00436584 7.22194e-18)
(4.80907 -0.00381254 5.53279e-18)
(4.78163 -0.00323645 6.4449e-18)
(4.75467 -0.00261632 7.66093e-18)
(4.72877 -0.00191694 8.12783e-18)
(4.70438 -0.00104277 1.12547e-17)
(4.68192 0.000286653 1.75582e-17)
(4.66163 0.00257601 1.42045e-17)
(4.64379 0.00747633 9.63195e-18)
(4.62418 0.019472 1.25318e-17)
(4.71569 -0.0493033 -6.13487e-18)
(4.73612 -0.0541795 -6.29211e-18)
(4.75096 -0.0400018 -1.07351e-16)
(4.7477 -0.029169 -3.37222e-18)
(4.73716 -0.0215671 6.13191e-17)
(4.72618 -0.0163185 5.42871e-17)
(4.7149 -0.0131832 7.14642e-17)
(4.70211 -0.0112485 5.64729e-17)
(4.68704 -0.009758 9.55259e-17)
(4.66919 -0.00843366 9.73637e-17)
(4.64821 -0.00722847 9.064e-17)
(4.62394 -0.00610935 7.3276e-17)
(4.59657 -0.0050588 1.04103e-16)
(4.56656 -0.00405627 7.97435e-17)
(4.53471 -0.00310976 7.09316e-17)
(4.50193 -0.00221611 5.00247e-17)
(4.46923 -0.00139585 6.58366e-17)
(4.43751 -0.000652817 3.57942e-17)
(4.40751 -8.71827e-06 2.67714e-17)
(4.37968 0.000538653 1.6143e-17)
(4.35425 0.000977689 1.82062e-17)
(4.33122 0.00132671 1.32644e-17)
(4.31049 0.00159432 5.58173e-18)
(4.29186 0.00182639 2.11049e-18)
(4.27519 0.00207754 2.86219e-18)
(4.26039 0.00245413 3.35932e-18)
(4.2475 0.00323672 3.46228e-18)
(4.23677 0.00486136 2.0904e-17)
(4.22835 0.00917681 3.61586e-18)
(4.21873 0.0223712 -2.18058e-18)
(4.27308 -0.050313 -7.73205e-17)
(4.28971 -0.053483 -1.03604e-16)
(4.28962 -0.0382035 -1.0011e-16)
(4.26658 -0.0272475 -1.11338e-16)
(4.23568 -0.0193382 -3.6893e-17)
(4.20443 -0.0137791 -9.62107e-17)
(4.17258 -0.0103076 -4.82739e-17)
(4.13898 -0.00795446 -3.31196e-17)
(4.10367 -0.00600482 -2.85843e-17)
(4.06741 -0.00423035 -1.28694e-17)
(4.03125 -0.00261758 -3.39696e-17)
(3.99635 -0.00116777 -4.6325e-17)
(3.96377 9.89687e-05 -4.43563e-17)
(3.93425 0.00117195 -3.55475e-17)
(3.9082 0.00202987 -1.84018e-17)
(3.88563 0.00267903 -2.05632e-17)
(3.86634 0.0031241 -3.75636e-17)
(3.84992 0.00339922 -3.06617e-17)
(3.83598 0.00352988 -2.4371e-17)
(3.82414 0.00356199 -2.05878e-17)
(3.81407 0.00352211 -1.77664e-17)
(3.80552 0.00345124 -1.51785e-17)
(3.79828 0.00336884 -1.28226e-17)
(3.79217 0.00331431 -1.16386e-17)
(3.78713 0.00332534 -7.53429e-18)
(3.78314 0.00347423 4.35613e-19)
(3.78034 0.00399197 5.76823e-18)
(3.77945 0.00519819 2.1844e-17)
(3.78037 0.00897049 2.79121e-17)
(3.7827 0.0237743 2.45369e-17)
(3.70324 -0.0471907 -1.20825e-17)
(3.63505 -0.0473109 -5.02224e-17)
(3.57102 -0.0304773 -8.37167e-17)
(3.49739 -0.0193833 -1.03888e-16)
(3.42847 -0.0120124 -1.05956e-16)
(3.37061 -0.00726602 -1.0768e-16)
(3.32219 -0.00445141 -9.76812e-17)
(3.28158 -0.00252333 -8.33323e-17)
(3.24847 -0.000909708 -7.05847e-17)
(3.22268 0.000482151 -5.92808e-17)
(3.2036 0.00161415 -5.36064e-17)
(3.1903 0.00248028 -5.23705e-17)
(3.18173 0.00310117 -5.09204e-17)
(3.17693 0.00351593 -4.92168e-17)
(3.17504 0.00376124 -4.54701e-17)
(3.17535 0.00388045 -4.42183e-17)
(3.17734 0.00390563 -4.54496e-17)
(3.18052 0.00386812 -4.45654e-17)
(3.18457 0.00378483 -4.19343e-17)
(3.18919 0.00367427 -3.50184e-17)
(3.19417 0.00354446 -2.84782e-17)
(3.19935 0.00341011 -2.33708e-17)
(3.20464 0.00327978 -2.02925e-17)
(3.20999 0.00317422 -1.80422e-17)
(3.21544 0.00312284 -1.55747e-17)
(3.22115 0.00317283 -1.22874e-17)
(3.22735 0.00351284 -8.1933e-18)
(3.23559 0.00436794 -1.79575e-18)
(3.24548 0.00717484 4.99972e-18)
(3.26354 0.0237281 9.57774e-18)
(2.48833 -0.0450551 -3.61801e-17)
(2.46098 -0.046228 -2.62975e-16)
(2.38686 -0.0271067 -2.64759e-16)
(2.2952 -0.0137514 -2.30022e-16)
(2.22428 -0.00563277 -1.83128e-16)
(2.18164 -0.00139369 -1.62453e-16)
(2.15878 0.000374716 -6.42417e-17)
(2.14816 0.00111019 -4.18154e-17)
(2.14584 0.0015387 -3.78612e-17)
(2.14962 0.00184604 -4.90133e-17)
(2.15789 0.0020686 -5.08414e-17)
(2.16949 0.00222662 -4.78589e-17)
(2.18351 0.00234033 -4.2908e-17)
(2.19924 0.0024147 -4.57733e-17)
(2.21604 0.00245409 -4.90357e-17)
(2.23341 0.00245735 -4.3409e-17)
(2.25092 0.00243093 -6.63195e-17)
(2.26827 0.00237698 -5.03143e-17)
(2.2852 0.00230445 -2.07804e-17)
(2.30158 0.00221653 -1.20673e-17)
(2.31726 0.00212288 -5.00512e-18)
(2.33225 0.00202677 -4.50803e-18)
(2.34649 0.00193939 -1.30618e-17)
(2.36009 0.00186739 -1.41586e-17)
(2.37315 0.00183486 -1.16482e-17)
(2.38602 0.00186848 -1.237e-17)
(2.39899 0.00209467 -1.00479e-17)
(2.41474 0.00285324 -6.04782e-18)
(2.4318 0.00426187 -1.8942e-17)
(2.46866 0.0182444 -4.06012e-18)
(1.40781 0.0198572 -2.45249e-17)
(1.0934 0.00447033 -3.27156e-16)
(0.915536 0.000334834 -2.05998e-16)
(0.810699 0.000616359 -1.15283e-16)
(0.770851 0.00131384 -7.02966e-17)
(0.765247 0.00121905 -6.81133e-17)
(0.768578 0.000783109 6.41687e-17)
(0.772805 0.000495452 -5.42079e-17)
(0.777851 0.000396969 -3.35228e-17)
(0.784363 0.000377495 -5.2831e-17)
(0.792246 0.000379787 -6.13666e-17)
(0.801289 0.000384077 -2.81943e-17)
(0.811183 0.000389745 -1.28957e-17)
(0.821749 0.000389274 -8.97249e-17)
(0.832673 0.000385651 -4.47737e-17)
(0.843806 0.000374639 -2.50571e-17)
(0.85487 0.00036232 -6.08936e-17)
(0.865805 0.000345185 -3.42091e-17)
(0.876393 0.000329526 6.25796e-18)
(0.886664 0.000311224 1.40277e-17)
(0.896458 0.000296675 1.05847e-17)
(0.90588 0.00028129 1.4028e-17)
(0.914827 0.000272341 4.20403e-18)
(0.923492 0.000266316 9.31238e-19)
(0.931875 0.000274564 -1.96676e-18)
(0.94043 0.000303622 -4.77013e-18)
(0.94934 0.000389667 6.09538e-18)
(0.960843 0.000786196 3.24087e-18)
(0.972305 0.000852533 -1.56119e-19)
(0.975802 0.0118714 -1.77554e-18)
(5.34851 0.000802073 1.4864e-15)
(5.34564 0.000847321 1.47005e-15)
(5.34286 0.000779446 1.4541e-15)
(5.34048 0.000646005 1.43885e-15)
(5.33857 0.000504127 1.42442e-15)
(5.33708 0.000386678 1.41084e-15)
(5.33592 0.000294892 1.39805e-15)
(5.33502 0.000220955 1.38606e-15)
(5.33433 0.000164192 1.37473e-15)
(5.3338 0.000124953 1.36387e-15)
(5.33339 9.87084e-05 1.35344e-15)
(5.33305 8.0384e-05 1.34303e-15)
(5.33275 6.75886e-05 1.33306e-15)
(5.3325 5.90073e-05 1.31872e-15)
(5.33227 5.31469e-05 1.33572e-15)
(5.33205 4.87926e-05 1.28379e-15)
(5.33184 4.52694e-05 1.2229e-15)
(5.33165 4.22238e-05 1.26422e-15)
(5.33146 3.95555e-05 1.24112e-15)
(5.33127 3.72352e-05 1.23994e-15)
(5.33109 3.50649e-05 1.24664e-15)
(5.33091 3.26677e-05 1.23449e-15)
(5.33074 3.02401e-05 1.22072e-15)
(5.33057 2.87107e-05 1.21519e-15)
(5.33041 2.82499e-05 1.16038e-15)
(5.33024 2.71554e-05 1.23774e-15)
(5.33007 2.44141e-05 1.26392e-15)
(5.32992 2.24799e-05 1.25218e-15)
(5.32976 2.3684e-05 1.2354e-15)
(5.3296 2.54964e-05 1.21648e-15)
(5.32943 2.48424e-05 1.1966e-15)
(5.32928 2.33498e-05 1.17697e-15)
(5.32912 2.16594e-05 1.15805e-15)
(5.32895 1.81157e-05 1.13927e-15)
(5.32877 1.87243e-05 1.12111e-15)
(5.3286 2.89358e-05 1.1034e-15)
(5.32842 3.29056e-05 1.08613e-15)
(5.32822 1.77649e-05 1.06924e-15)
(5.32803 7.4936e-06 1.05289e-15)
(5.32781 2.65341e-05 1.03734e-15)
(5.32756 4.91443e-05 1.02213e-15)
(5.32731 2.82078e-05 1.00895e-15)
(5.327 -3.43081e-05 9.91258e-16)
(5.32656 -7.16197e-05 9.79873e-16)
(5.32525 -3.11506e-05 9.00718e-16)
(5.32101 0.000206974 1.00045e-15)
(5.30678 0.00127417 9.20418e-16)
(5.27275 0.00348543 8.6504e-16)
(5.2116 0.00625935 8.78922e-16)
(5.12184 0.00875799 8.94222e-16)
(5.00759 0.0105315 1.22403e-15)
(4.87526 0.0115691 9.99502e-16)
(4.73079 0.0120546 7.74361e-16)
(4.57873 0.0121735 9.31794e-16)
(4.42242 0.012053 9.73713e-16)
(4.26433 0.0117731 1.03208e-15)
(4.10631 0.0113859 9.83749e-16)
(3.94979 0.0109281 8.59908e-16)
(3.79583 0.0104267 8.28878e-16)
(3.64524 0.00990117 8.42946e-16)
(3.49861 0.00936627 8.9283e-16)
(3.35635 0.00883263 9.59188e-16)
(3.21875 0.00830799 8.60493e-16)
(3.08599 0.00779785 6.69301e-16)
(2.95816 0.00730602 7.27321e-16)
(2.83529 0.00683502 7.58999e-16)
(2.71736 0.00638639 7.17597e-16)
(2.60432 0.00596094 7.36347e-16)
(2.49606 0.00555893 7.49701e-16)
(2.39248 0.0051802 6.15392e-16)
(2.29345 0.0048243 5.17596e-16)
(2.19883 0.00449057 5.62694e-16)
(2.10846 0.00417818 5.10354e-16)
(2.02219 0.00388622 5.12815e-16)
(1.93985 0.00361371 6.17502e-16)
(1.8613 0.00335964 5.29258e-16)
(1.78637 0.00312297 4.14548e-16)
(1.7149 0.0029027 4.24151e-16)
(1.64674 0.00269782 4.24113e-16)
(1.58174 0.00250737 4.31903e-16)
(1.51976 0.00233041 3.96285e-16)
(1.46065 0.00216605 4.06901e-16)
(1.40428 0.00201343 4.09131e-16)
(1.35051 0.00187176 3.39364e-16)
(1.29922 0.00174026 3.17595e-16)
(1.25029 0.00161824 3.07555e-16)
(1.20361 0.001505 3.40738e-16)
(1.15906 0.00139993 3.43484e-16)
(1.11654 0.00130244 2.77813e-16)
(1.07595 0.00121197 2.84861e-16)
(1.03719 0.00112802 2.8468e-16)
(1.00018 0.00105011 2.54141e-16)
(0.964829 0.000977802 2.60743e-16)
(0.931052 0.000910681 2.72705e-16)
(0.898773 0.000848367 2.13646e-16)
(0.867918 0.000790508 2.25551e-16)
(0.838418 0.000736776 2.46949e-16)
(0.810206 0.000686867 2.00499e-16)
(0.78322 0.0006405 1.9611e-16)
(0.757399 0.000597415 2.20624e-16)
(0.732688 0.000557371 2.04101e-16)
(0.709031 0.000520145 1.93838e-16)
(0.686379 0.000485531 1.97203e-16)
(0.664684 0.000453338 1.71264e-16)
(0.643899 0.00042339 1.69376e-16)
(0.623981 0.000395522 1.74732e-16)
(0.604889 0.000369585 1.63464e-16)
(0.586584 0.000345439 1.6135e-16)
(0.569029 0.000322953 1.55629e-16)
(0.552189 0.000302009 1.49212e-16)
(0.536031 0.000282495 1.35431e-16)
(0.520524 0.00026431 1.45323e-16)
(0.505636 0.000247357 1.41437e-16)
(0.49134 0.00023155 1.24992e-16)
(0.47761 0.000216807 1.33387e-16)
(0.464418 0.000203052 1.265e-16)
(0.451742 0.000190217 1.22327e-16)
(0.439558 0.000178235 1.24639e-16)
(0.427844 0.000167048 1.17339e-16)
(0.416579 0.000156599 1.06461e-16)
(0.405744 0.000146837 1.09867e-16)
(0.39532 0.000137713 1.04426e-16)
(0.38529 0.000129184 1.02593e-16)
(0.375635 0.000121206 1.01709e-16)
(0.366342 0.000113742 9.65619e-17)
(0.357393 0.000106754 9.85165e-17)
(0.348777 0.000100211 9.6327e-17)
(0.340477 9.40717e-05 9.14482e-17)
(0.332486 8.8323e-05 8.97781e-17)
(0.324786 8.28973e-05 8.73669e-17)
(0.317377 7.78368e-05 8.81321e-17)
(0.310231 7.2969e-05 8.40007e-17)
(0.303379 6.85357e-05 8.08836e-17)
(0.296742 6.39648e-05 7.96353e-17)
(0.290466 6.02516e-05 7.8168e-17)
(0.284259 5.53312e-05 7.68976e-17)
(0.278715 5.30119e-05 7.5344e-17)
(0.272692 4.58089e-05 7.47685e-17)
(0.268494 4.73349e-05 7.28367e-17)
(0.26179 2.88716e-05 7.02209e-17)
(5.35219 0.0018313 -5.837e-16)
(5.34919 0.00192871 -5.70007e-16)
(5.3463 0.00176012 -5.54651e-16)
(5.34388 0.00144403 -5.3795e-16)
(5.34198 0.00111842 -5.20896e-16)
(5.34051 0.000855322 -5.01674e-16)
(5.33937 0.000650591 -4.92873e-16)
(5.33848 0.000485115 -4.56312e-16)
(5.3378 0.000358921 -4.30946e-16)
(5.33729 0.000272346 -4.15742e-16)
(5.33688 0.000214246 -3.97397e-16)
(5.33654 0.000173486 -3.9085e-16)
(5.33625 0.000145164 -3.73108e-16)
(5.33599 0.000126336 -3.33912e-16)
(5.33575 0.000113644 -3.18231e-16)
(5.33553 0.000104475 -3.0299e-16)
(5.33532 9.73844e-05 -2.99932e-16)
(5.33511 9.165e-05 -2.62502e-16)
(5.33492 8.70834e-05 -2.5365e-16)
(5.33473 8.35907e-05 -2.56573e-16)
(5.33454 8.04207e-05 -2.7157e-16)
(5.33435 7.63061e-05 -2.64e-16)
(5.33417 7.15373e-05 -2.5537e-16)
(5.33399 6.86612e-05 -2.47065e-16)
(5.33382 6.8767e-05 -2.37158e-16)
(5.33364 6.82186e-05 -2.38801e-16)
(5.33347 6.39823e-05 -2.22038e-16)
(5.3333 5.96018e-05 -1.84441e-16)
(5.33314 5.83515e-05 -1.8294e-16)
(5.33297 5.61174e-05 -1.74022e-16)
(5.33279 5.34927e-05 -1.79816e-16)
(5.33262 5.99972e-05 -1.41405e-16)
(5.33246 6.89356e-05 -1.07043e-16)
(5.33227 5.76993e-05 -1.35135e-16)
(5.33209 3.57647e-05 -1.30395e-16)
(5.33192 4.31482e-05 -1.55629e-16)
(5.33171 7.62162e-05 -1.55019e-16)
(5.3315 8.32069e-05 -1.50381e-16)
(5.33129 4.02966e-05 -1.44778e-16)
(5.33105 -2.82626e-05 -1.32917e-16)
(5.33066 -8.75061e-05 -1.22481e-16)
(5.32953 -0.000109873 -8.07816e-17)
(5.32615 -3.4684e-05 -9.67062e-17)
(5.3171 0.00040892 -7.11193e-17)
(5.29695 0.00170427 6.19284e-17)
(5.26134 0.00422877 2.05366e-16)
(5.20943 0.00792198 3.65902e-16)
(5.14292 0.0123649 5.48936e-16)
(5.06353 0.0170194 6.71337e-16)
(4.97155 0.0213209 7.52909e-16)
(4.86649 0.0247882 9.05691e-16)
(4.7487 0.027197 9.80805e-16)
(4.6199 0.0285935 9.93934e-16)
(4.48262 0.029166 1.08467e-15)
(4.33954 0.0291229 1.15926e-15)
(4.19302 0.0286383 1.37922e-15)
(4.04503 0.0278447 1.24355e-15)
(3.89714 0.0268404 8.92846e-16)
(3.75059 0.0256989 9.15755e-16)
(3.60635 0.0244749 1.02917e-15)
(3.46515 0.0232092 1.1707e-15)
(3.32754 0.0219319 1.38134e-15)
(3.19391 0.0206654 1.15669e-15)
(3.06455 0.0194256 6.90649e-16)
(2.93964 0.0182239 9.21541e-16)
(2.81927 0.0170682 1.06055e-15)
(2.70349 0.0159635 9.61419e-16)
(2.59228 0.0149128 9.98953e-16)
(2.48562 0.0139175 9.89785e-16)
(2.3834 0.0129779 7.66339e-16)
(2.28555 0.0120934 7.40859e-16)
(2.19194 0.0112626 7.44751e-16)
(2.10245 0.010484 7.44232e-16)
(2.01694 0.00975544 6.82312e-16)
(1.93527 0.00907472 7.45824e-16)
(1.85728 0.00843948 7.7708e-16)
(1.78285 0.00784731 5.96466e-16)
(1.71181 0.00729577 5.4453e-16)
(1.64403 0.00678245 5.6381e-16)
(1.57936 0.00630502 6.07465e-16)
(1.51766 0.00586119 5.38881e-16)
(1.4588 0.00544878 5.81685e-16)
(1.40264 0.00506569 5.95215e-16)
(1.34906 0.00470994 4.35805e-16)
(1.29794 0.00437964 3.99592e-16)
(1.24916 0.00407304 3.80139e-16)
(1.20261 0.00378845 4.81984e-16)
(1.15817 0.00352432 5.09184e-16)
(1.11575 0.00327918 3.57202e-16)
(1.07525 0.00305167 3.86521e-16)
(1.03657 0.00284051 4.01396e-16)
(0.999626 0.00264452 3.81451e-16)
(0.964333 0.00246258 3.71636e-16)
(0.930608 0.00229367 3.63344e-16)
(0.898376 0.00213685 3.02868e-16)
(0.867564 0.00199122 3.02151e-16)
(0.838101 0.00185596 3.30998e-16)
(0.809922 0.00173031 2.88768e-16)
(0.782965 0.00161357 2.52816e-16)
(0.75717 0.00150508 3.0017e-16)
(0.732482 0.00140425 2.87001e-16)
(0.708846 0.0013105 2.76228e-16)
(0.686213 0.00122333 2.9656e-16)
(0.664534 0.00114225 2.28243e-16)
(0.643763 0.00106681 2.30856e-16)
(0.623859 0.000996621 2.53409e-16)
(0.604779 0.000931286 2.28381e-16)
(0.586484 0.000870459 2.2902e-16)
(0.568939 0.000813813 2.19043e-16)
(0.552108 0.000761049 2.06735e-16)
(0.535957 0.000711887 1.94744e-16)
(0.520456 0.00066607 1.92244e-16)
(0.505575 0.000623358 1.83157e-16)
(0.491285 0.00058353 1.81113e-16)
(0.477559 0.000546382 1.91116e-16)
(0.464373 0.000511725 1.784e-16)
(0.451701 0.000479382 1.70317e-16)
(0.43952 0.000449191 1.70107e-16)
(0.427809 0.000421 1.63888e-16)
(0.416548 0.00039467 1.52209e-16)
(0.405716 0.00037007 1.52951e-16)
(0.395294 0.000347078 1.41754e-16)
(0.385266 0.000325584 1.4024e-16)
(0.375613 0.00030548 1.42639e-16)
(0.366321 0.000286671 1.32341e-16)
(0.357375 0.000269059 1.40149e-16)
(0.34876 0.000252571 1.37609e-16)
(0.340462 0.000237098 1.28017e-16)
(0.332471 0.00022261 1.26246e-16)
(0.324773 0.000208936 1.21421e-16)
(0.317364 0.000196182 1.26017e-16)
(0.31022 0.000183915 1.17659e-16)
(0.303369 0.00017274 1.10843e-16)
(0.296733 0.000161222 1.10561e-16)
(0.290457 0.000151859 1.09006e-16)
(0.284251 0.000139467 1.07511e-16)
(0.278707 0.000133606 1.05678e-16)
(0.272685 0.000115479 1.059e-16)
(0.268487 0.000119276 1.01922e-16)
(0.261784 7.28161e-05 9.73725e-17)
(5.35728 0.00299501 3.61424e-16)
(5.35401 0.00313447 3.65683e-16)
(5.35092 0.0028217 3.69386e-16)
(5.34843 0.00227594 3.68141e-16)
(5.34655 0.00174245 3.76672e-16)
(5.34514 0.0013289 3.84847e-16)
(5.34404 0.00101 3.8966e-16)
(5.34319 0.000752257 3.9294e-16)
(5.34254 0.000559214 3.95871e-16)
(5.34205 0.000429102 3.98344e-16)
(5.34165 0.000341595 4.00341e-16)
(5.34132 0.000279808 4.01662e-16)
(5.34102 0.000236872 4.02813e-16)
(5.34076 0.000208 4.02287e-16)
(5.34052 0.000187885 4.07947e-16)
(5.34029 0.000172621 3.94315e-16)
(5.34007 0.000160027 3.86755e-16)
(5.33986 0.000149107 3.92897e-16)
(5.33966 0.000139937 3.80956e-16)
(5.33946 0.000132927 3.68853e-16)
(5.33926 0.000127146 3.70644e-16)
(5.33906 0.000120352 3.89699e-16)
(5.33887 0.000112402 3.88464e-16)
(5.33868 0.000106679 3.69368e-16)
(5.3385 0.000104494 3.57371e-16)
(5.33831 0.000101403 3.50298e-16)
(5.33812 9.68474e-05 3.46518e-16)
(5.33795 9.89951e-05 3.44223e-16)
(5.33777 0.00010592 3.42202e-16)
(5.33758 9.66777e-05 3.40468e-16)
(5.3374 7.06136e-05 3.3889e-16)
(5.33722 6.60321e-05 3.37587e-16)
(5.33704 9.97598e-05 3.35799e-16)
(5.33683 0.000124802 3.36883e-16)
(5.33663 9.62054e-05 3.28836e-16)
(5.33644 2.79124e-05 3.70083e-16)
(5.33616 -4.41739e-05 3.5719e-16)
(5.33555 -9.60535e-05 3.50404e-16)
(5.3337 -9.62051e-05 3.69429e-16)
(5.32887 4.03515e-05 3.79352e-16)
(5.31762 0.000572272 3.21095e-16)
(5.29554 0.00189636 3.53252e-16)
(5.25987 0.00424519 3.09192e-16)
(5.21063 0.00761214 3.38785e-16)
(5.15054 0.0117131 4.01233e-16)
(5.08235 0.0161066 3.6853e-16)
(5.00776 0.0204446 4.64276e-16)
(4.92751 0.0245823 5.36086e-16)
(4.84188 0.0285029 4.52133e-16)
(4.75082 0.0321686 4.84292e-16)
(4.65376 0.0354305 6.27862e-16)
(4.54985 0.0380747 7.31353e-16)
(4.43864 0.0399395 7.90912e-16)
(4.32042 0.0409857 9.3882e-16)
(4.1962 0.0412838 1.02956e-15)
(4.06738 0.0409606 1.02905e-15)
(3.93548 0.0401533 1.02886e-15)
(3.80195 0.0389864 8.90301e-16)
(3.66806 0.037564 7.12392e-16)
(3.53487 0.0359698 9.79204e-16)
(3.40328 0.0342699 1.22442e-15)
(3.274 0.0325153 1.27631e-15)
(3.14757 0.0307451 1.08128e-15)
(3.02442 0.0289886 6.85521e-16)
(2.90487 0.0272675 9.33966e-16)
(2.78912 0.0255974 1.123e-15)
(2.67732 0.0239892 9.72268e-16)
(2.56955 0.0224501 9.24193e-16)
(2.46585 0.0209847 9.42826e-16)
(2.3662 0.0195951 8.05069e-16)
(2.27057 0.0182819 7.61449e-16)
(2.17887 0.0170446 7.31616e-16)
(2.09104 0.0158817 7.90813e-16)